

 Parallel Execution: Process Information
 ==============================================================================
 Rank   Node Name                              NodeID   MyNodeRank  NodeMaster
    0   grant                                     0          0          0
    1   grant                                     0          1         -1
    2   grant                                     0          2         -1
    3   grant                                     0          3         -1
 ==============================================================================


May use up to 6648MB of RAM as shared memory on node 0


title  Complex
units
  length Angstrom
end
EPRINT
  SFO eig ovl
END
xc
  GGA  becke perdew
end

ATOMS
    1.O        -0.008650    0.178874    0.090112    f=frag1
    2.H         0.279063    0.026877    1.009864    f=frag1
    3.H         0.824570    0.171103   -0.417672    f=frag1
    4.O        -1.263709   -2.321444   -0.648595    f=frag2
    5.H        -0.902354   -1.435104   -0.414516    f=frag2
    6.H        -2.145956   -2.118384   -1.007632    f=frag2
end

symmetry nosym
CHARGE 0

fragments
  frag1 frag1.t21
  frag2 frag2.t21
end

ETSNOCV ENOCV 0.001
PRINT ETSLOWDIN


end input

 *******************************************************************************
 *                                                                             *
 *  -------------------------------------                                      *
 *   Amsterdam Density Functional  (ADF)         2017                          *
 *  -------------------------------------                                      *
 *                                               r61708 2017-10-13             *
 *                                                                             *
 *                                                                             *
 *                              =================                              *
 *                              |               |                              *
 *                              |     A D F     |                              *
 *                              |               |                              *
 *                              =================                              *
 *                                                                             *
 *                                                                             *
 *   Online information and documentation:  https://www.scm.com/support/       *
 *   E-mail:  support@scm.com   info@scm.com                                   *
 *                                                                             *
 *   Scientific publications using ADF results must be properly referenced     *
 *   See the User Manuals (or the web site) for recommended citations          *
 *   The terms and conditions of the End User License Agreement apply to       *
 *   the use of ADF, https://www.scm.com/license-terms/                        *
 *                                                                             *
 **********************  x86_64_linux_intel / intelmpi  ************************
 
 Licensed to: Prof. Paola Belanzoni / University of Perugia, Department of Chemistry / Perugia / IT
 SCM User ID: u7022
  
 ADF 2017  RunTime: Apr02-2021 03:22:57  Nodes: 1  Procs: 4

 Temporary files are created in /tmp/kid_0.KjPTIB


Communication costs MPI_COMM_WORLD:      1.663 usec per message,   0.0071 usec per 8-byte item
Communication costs for intra-node:      1.744 usec per message,   0.0068 usec per 8-byte item

 Complex



 ===========================
 A T T A C H E D   F I L E S
 ===========================
  



 ===============================
 M O D E L   P A R A M E T E R S
 ===============================
  
 DENSITY FUNCTIONAL POTENTIAL (scf)
    LDA:                               VWN                                      
    Gradient Corrections:              Becke88 Perdew86                        == Not Default ==

 SPIN  (restricted / unrestr.)
    Molecule:                          Restricted                               
    Fragments:                         Restricted                               

 OTHER ASPECTS
    Relativistic Corrections:          ---                                      

    Nuclear Charge Density Model:      Point Charge Nuclei                      
    Core Treatment:                    Frozen Orbital(s)                        

    Hyperfine or Zeeman Interaction:   ---                                      


 Fragment File(s)
 ----------------
 frag1:
         file : frag1.t21
         jobid: ADF 2017  RunTime: Apr02-2021 03:22:43  Nodes: 1  Procs: 4
         title: fragment1
 frag2:
         file : frag2.t21
         jobid: ADF 2017  RunTime: Apr02-2021 03:22:51  Nodes: 1  Procs: 4
         title: Fragment2



                                        ************************************
                                        *  R U N   T Y P E : SINGLE POINT  *
                                        ************************************
  



 ===============
 G E O M E T R Y  ***  3D  Molecule  ***
 ===============
  

 ATOMS
 =====                            X Y Z                    CHARGE
                                (Angstrom)             Nucl     +Core       At.Mass
                       --------------------------    ----------------       -------
    1  O              -0.0086    0.1789    0.0901      8.00      8.00       15.9949
    2  H               0.2791    0.0269    1.0099      1.00      1.00        1.0078
    3  H               0.8246    0.1711   -0.4177      1.00      1.00        1.0078
    4  O              -1.2637   -2.3214   -0.6486      8.00      8.00       15.9949
    5  H              -0.9024   -1.4351   -0.4145      1.00      1.00        1.0078
    6  H              -2.1460   -2.1184   -1.0076      1.00      1.00        1.0078


 FRAGMENTS
 =========                                     Atoms in this Fragment     Cart. coord.s (Angstrom)
                                               -------------------------------------------------------
    1  frag1                                             1  O           -0.0086    0.1789    0.0901
                                                         2  H            0.2791    0.0269    1.0099
                                                         3  H            0.8246    0.1711   -0.4177
    2  frag2                                             4  O           -1.2637   -2.3214   -0.6486
                                                         5  H           -0.9024   -1.4351   -0.4145
                                                         6  H           -2.1460   -2.1184   -1.0076


 Interatomic Distance Matrix (Angstrom)
 --------------------------------------

   1)     0.000
   2)     0.976   0.000
   3)     0.976   1.535   0.000
   4)     2.894   3.263   3.260   0.000
   5)     1.913   2.358   2.358   0.985   0.000
   6)     3.324   3.815   3.797   0.974   1.538   0.000

 Min. Distance =    0.9739
 Max. Distance =    3.8149



 =====================================
 S Y M M E T R Y ,   E L E C T R O N S
 =====================================
  
 Symmetry: NOSYM

 Irreducible Representations, including subspecies
 -------------------------------------------------
 A


 Configuration of Valence Electrons
 ==================================
 ( determined in the SCF procedure )

 Total:   20

 Net Charge: 0 (Nuclei minus Electrons)

 Aufbau principle for MO occupations will be applied through SCF cycle no.     150
 Thereafter, the program will assign electrons to MOs that are spatially
 similar to the occupied MOs in a "reference" cycle ("KeepOrbitals").
 The reference cycle is always the PREVIOUS cycle: it will evolve with
 the SCF procedure.
1
 ***************************************************************************************************



                                      ****************************************
                                      *  B U I L D : (Fragments, Functions)  *
                                      ****************************************
  

 The individual fragments are copies of the corresponding 'Master' fragments defined on the fragment files.
 However, they may have been rotated (and translated) with respect to the Master. The local coordinate axes
 of each fragment (which define for instance the spatial orientation in the current molecule of a fragment
 P:x orbital) are not necessarily those of the molecule.
 The local frame (if different from the molecular one) is printed to enable an interpretation of the expan-
 sion of an MO in Fragment Orbitals.



                                            ***************************
                                            *  Fragment Type : frag1  *
                                            ***************************
  

 Fragment no.    1   (in the list of all fragments)
 -----------------
 The local coordinate frame is identical to the molecular frame.

 Check Atomic Coordinates:

                  Master (on file)          After Computed Tranformation               As specified on Input
           ----------------------------     ----------------------------     ---------------------------------
     1)    -0.00865   0.17887   0.09011     -0.00865   0.17887   0.09011       1  -0.00865   0.17887   0.09011
     2)     0.27906   0.02688   1.00986      0.27906   0.02688   1.00986       2   0.27906   0.02688   1.00986
     3)     0.82457   0.17110  -0.41767      0.82457   0.17110  -0.41767       3   0.82457   0.17110  -0.41767



                                            ***************************
                                            *  Fragment Type : frag2  *
                                            ***************************
  

 Fragment no.    2   (in the list of all fragments)
 -----------------
 The local coordinate frame is identical to the molecular frame.

 Check Atomic Coordinates:

                  Master (on file)          After Computed Tranformation               As specified on Input
           ----------------------------     ----------------------------     ---------------------------------
     1)    -1.26371  -2.32144  -0.64860     -1.26371  -2.32144  -0.64860       4  -1.26371  -2.32144  -0.64860
     2)    -0.90235  -1.43510  -0.41452     -0.90235  -1.43510  -0.41452       5  -0.90235  -1.43510  -0.41452
     3)    -2.14596  -2.11838  -1.00763     -2.14596  -2.11838  -1.00763       6  -2.14596  -2.11838  -1.00763



 =======
 S F O s  ***  (Symmetrized Fragment Orbitals)  ***
 =======
  
 SFOs are linear combinations of (valence) Fragment Orbitals (FOs), such that the SFOs transform as the
 irreducible representations of the (molecular) symmetry group. Each SFO is therefore characterized by
 an irrep of the molecule and by a few (or only one) generating FOs.
 The SFOs constitute a symmetry-adapted basis for the Fock matrix. The MO eigenvector coefficients in
 this basis provide a direct interpretation of the MOs in terms of Frontier Orbital Theory.

 The SFOs are combined with auxiliary Core Functions (CFs) to ensure orthogonalization on the (frozen)
 Core Orbitals (COs). The Core-orthogonalized SFOs (CSFOs) constitute the true Fock basis.

 The FOs, and hence also the (C)SFOs are combinations of the elementary basis functions (BAS). The basis
 functions that participate in the description of the SFOs depend on the irrep. The indices of the
 involved functions are printed below for each irrep.
 (The complete list of primitive basis functions is printed in another section)

 Total nr. of (C)SFOs (summation over all irreps) :   172

 NOTE: a (C)SFO that is defined as a combination of more than one FO is usually NOT normalized.



                                       === A ===
 Nr. of SFOs :  172
 Cartesian basis functions that participate in this irrep (total number =   196) :
      1     2     3     4     5     6     7     8     9    12
     15    18    10    13    16    19    11    14    17    20
     21    27    22    28    23    29    24    30    25    31
     26    32    33    43    34    44    35    45    36    46
     37    47    38    48    39    49    40    50    41    51
     42    52    53    54    55    56    57    58    61    59
     62    60    63    64    70    65    71    66    72    67
     73    68    74    69    75    76    77    78    79    80
     81    84    82    85    83    86    87    93    88    94
     89    95    90    96    91    97    92    98    99   100
    101   102   103   104   105   106   107   110   113   116
    108   111   114   117   109   112   115   118   119   125
    120   126   121   127   122   128   123   129   124   130
    131   141   132   142   133   143   134   144   135   145
    136   146   137   147   138   148   139   149   140   150
    151   152   153   154   155   156   159   157   160   158
    161   162   168   163   169   164   170   165   171   166
    172   167   173   174   175   176   177   178   179   182
    180   183   181   184   185   191   186   192   187   193
    188   194   189   195   190   196

    SFO  (index         Fragment          Generating    Expansion in Fragment Orbitals
  indx  incl.CFs)   Occup   Orb.Energy   FragmentType  Coeff.   Orbital     on Fragment
 --------------------------------------------------------------------------------------
     1       1      2.000     -18.779 au  frag1         1.00      1 A               1
                        (    -511.012 eV)
     2       2      2.000      -0.929 au  frag1         1.00      2 A               1
                        (     -25.288 eV)
     3       3      2.000      -0.482 au  frag1         1.00      3 A               1
                        (     -13.123 eV)
     4       4      2.000      -0.348 au  frag1         1.00      4 A               1
                        (      -9.468 eV)
     5       5      2.000      -0.270 au  frag1         1.00      5 A               1
                        (      -7.345 eV)
     6       6       --        -0.030 au  frag1         1.00      6 A               1
                        (      -0.815 eV)
     7       7       --         0.033 au  frag1         1.00      7 A               1
                        (       0.902 eV)
     8       8       --         0.061 au  frag1         1.00      8 A               1
                        (       1.670 eV)
     9       9       --         0.138 au  frag1         1.00      9 A               1
                        (       3.768 eV)
    10      10       --         0.161 au  frag1         1.00     10 A               1
                        (       4.379 eV)
    11      11       --         0.190 au  frag1         1.00     11 A               1
                        (       5.179 eV)
    12      12       --         0.206 au  frag1         1.00     12 A               1
                        (       5.594 eV)
    13      13       --         0.252 au  frag1         1.00     13 A               1
                        (       6.850 eV)
    14      14       --         0.252 au  frag1         1.00     14 A               1
                        (       6.871 eV)
    15      15       --         0.293 au  frag1         1.00     15 A               1
                        (       7.978 eV)
    16      16       --         0.300 au  frag1         1.00     16 A               1
                        (       8.169 eV)
    17      17       --         0.335 au  frag1         1.00     17 A               1
                        (       9.109 eV)
    18      18       --         0.527 au  frag1         1.00     18 A               1
                        (      14.343 eV)
    19      19       --         0.585 au  frag1         1.00     19 A               1
                        (      15.928 eV)
    20      20       --         0.608 au  frag1         1.00     20 A               1
                        (      16.540 eV)
    21      21       --         0.656 au  frag1         1.00     21 A               1
                        (      17.839 eV)
    22      22       --         0.674 au  frag1         1.00     22 A               1
                        (      18.348 eV)
    23      23       --         0.707 au  frag1         1.00     23 A               1
                        (      19.246 eV)
    24      24       --         0.754 au  frag1         1.00     24 A               1
                        (      20.506 eV)
    25      25       --         0.774 au  frag1         1.00     25 A               1
                        (      21.055 eV)
    26      26       --         0.876 au  frag1         1.00     26 A               1
                        (      23.829 eV)
    27      27       --         0.890 au  frag1         1.00     27 A               1
                        (      24.228 eV)
    28      28       --         0.926 au  frag1         1.00     28 A               1
                        (      25.193 eV)
    29      29       --         0.933 au  frag1         1.00     29 A               1
                        (      25.382 eV)
    30      30       --         0.960 au  frag1         1.00     30 A               1
                        (      26.114 eV)
    31      31       --         1.053 au  frag1         1.00     31 A               1
                        (      28.642 eV)
    32      32       --         1.096 au  frag1         1.00     32 A               1
                        (      29.821 eV)
    33      33       --         1.122 au  frag1         1.00     33 A               1
                        (      30.540 eV)
    34      34       --         1.207 au  frag1         1.00     34 A               1
                        (      32.831 eV)
    35      35       --         1.345 au  frag1         1.00     35 A               1
                        (      36.604 eV)
    36      36       --         1.369 au  frag1         1.00     36 A               1
                        (      37.240 eV)
    37      37       --         1.554 au  frag1         1.00     37 A               1
                        (      42.275 eV)
    38      38       --         1.596 au  frag1         1.00     38 A               1
                        (      43.422 eV)
    39      39       --         1.627 au  frag1         1.00     39 A               1
                        (      44.276 eV)
    40      40       --         1.643 au  frag1         1.00     40 A               1
                        (      44.697 eV)
    41      41       --         1.749 au  frag1         1.00     41 A               1
                        (      47.590 eV)
    42      42       --         1.872 au  frag1         1.00     42 A               1
                        (      50.926 eV)
    43      43       --         1.898 au  frag1         1.00     43 A               1
                        (      51.660 eV)
    44      44       --         1.964 au  frag1         1.00     44 A               1
                        (      53.437 eV)
    45      45       --         2.136 au  frag1         1.00     45 A               1
                        (      58.115 eV)
    46      46       --         2.153 au  frag1         1.00     46 A               1
                        (      58.582 eV)
    47      47       --         2.225 au  frag1         1.00     47 A               1
                        (      60.553 eV)
    48      48       --         2.679 au  frag1         1.00     48 A               1
                        (      72.890 eV)
    49      49       --         2.680 au  frag1         1.00     49 A               1
                        (      72.940 eV)
    50      50       --         2.831 au  frag1         1.00     50 A               1
                        (      77.048 eV)
    51      51       --         2.966 au  frag1         1.00     51 A               1
                        (      80.713 eV)
    52      52       --         3.006 au  frag1         1.00     52 A               1
                        (      81.801 eV)
    53      53       --         3.032 au  frag1         1.00     53 A               1
                        (      82.508 eV)
    54      54       --         3.230 au  frag1         1.00     54 A               1
                        (      87.883 eV)
    55      55       --         3.351 au  frag1         1.00     55 A               1
                        (      91.177 eV)
    56      56       --         3.401 au  frag1         1.00     56 A               1
                        (      92.543 eV)
    57      57       --         3.554 au  frag1         1.00     57 A               1
                        (      96.711 eV)
    58      58       --         3.629 au  frag1         1.00     58 A               1
                        (      98.755 eV)
    59      59       --         3.909 au  frag1         1.00     59 A               1
                        (     106.357 eV)
    60      60       --         4.027 au  frag1         1.00     60 A               1
                        (     109.577 eV)
    61      61       --         4.143 au  frag1         1.00     61 A               1
                        (     112.750 eV)
    62      62       --         4.197 au  frag1         1.00     62 A               1
                        (     114.206 eV)
    63      63       --         4.423 au  frag1         1.00     63 A               1
                        (     120.351 eV)
    64      64       --         4.935 au  frag1         1.00     64 A               1
                        (     134.300 eV)
    65      65       --         4.993 au  frag1         1.00     65 A               1
                        (     135.866 eV)
    66      66       --         5.002 au  frag1         1.00     66 A               1
                        (     136.102 eV)
    67      67       --         5.237 au  frag1         1.00     67 A               1
                        (     142.510 eV)
    68      68       --         5.241 au  frag1         1.00     68 A               1
                        (     142.601 eV)
    69      69       --         5.962 au  frag1         1.00     69 A               1
                        (     162.231 eV)
    70      70       --         6.372 au  frag1         1.00     70 A               1
                        (     173.378 eV)
    71      71       --         6.930 au  frag1         1.00     71 A               1
                        (     188.586 eV)
    72      72       --         7.637 au  frag1         1.00     72 A               1
                        (     207.817 eV)
    73      73       --         7.710 au  frag1         1.00     73 A               1
                        (     209.806 eV)
    74      74       --         8.135 au  frag1         1.00     74 A               1
                        (     221.352 eV)
    75      75       --         8.364 au  frag1         1.00     75 A               1
                        (     227.598 eV)
    76      76       --         8.738 au  frag1         1.00     76 A               1
                        (     237.780 eV)
    77      77       --         9.391 au  frag1         1.00     77 A               1
                        (     255.530 eV)
    78      78       --         9.613 au  frag1         1.00     78 A               1
                        (     261.590 eV)
    79      79       --        13.192 au  frag1         1.00     79 A               1
                        (     358.986 eV)
    80      80       --        13.786 au  frag1         1.00     80 A               1
                        (     375.143 eV)
    81      81       --        15.148 au  frag1         1.00     81 A               1
                        (     412.189 eV)
    82      82       --        16.859 au  frag1         1.00     82 A               1
                        (     458.752 eV)
    83      83       --        17.481 au  frag1         1.00     83 A               1
                        (     475.672 eV)
    84      84       --        17.777 au  frag1         1.00     84 A               1
                        (     483.736 eV)
    85      85       --        55.987 au  frag1         1.00     85 A               1
                        (    1523.483 eV)
    86      86       --       340.325 au  frag1         1.00     86 A               1
                        (    9260.720 eV)
    87      87      2.000     -18.780 au  frag2         1.00      1 A               2
                        (    -511.030 eV)
    88      88      2.000      -0.928 au  frag2         1.00      2 A               2
                        (     -25.251 eV)
    89      89      2.000      -0.480 au  frag2         1.00      3 A               2
                        (     -13.072 eV)
    90      90      2.000      -0.348 au  frag2         1.00      4 A               2
                        (      -9.477 eV)
    91      91      2.000      -0.270 au  frag2         1.00      5 A               2
                        (      -7.338 eV)
    92      92       --        -0.031 au  frag2         1.00      6 A               2
                        (      -0.831 eV)
    93      93       --         0.033 au  frag2         1.00      7 A               2
                        (       0.890 eV)
    94      94       --         0.061 au  frag2         1.00      8 A               2
                        (       1.668 eV)
    95      95       --         0.137 au  frag2         1.00      9 A               2
                        (       3.741 eV)
    96      96       --         0.160 au  frag2         1.00     10 A               2
                        (       4.341 eV)
    97      97       --         0.190 au  frag2         1.00     11 A               2
                        (       5.170 eV)
    98      98       --         0.206 au  frag2         1.00     12 A               2
                        (       5.594 eV)
    99      99       --         0.252 au  frag2         1.00     13 A               2
                        (       6.869 eV)
   100     100       --         0.253 au  frag2         1.00     14 A               2
                        (       6.884 eV)
   101     101       --         0.293 au  frag2         1.00     15 A               2
                        (       7.982 eV)
   102     102       --         0.300 au  frag2         1.00     16 A               2
                        (       8.174 eV)
   103     103       --         0.335 au  frag2         1.00     17 A               2
                        (       9.120 eV)
   104     104       --         0.527 au  frag2         1.00     18 A               2
                        (      14.339 eV)
   105     105       --         0.583 au  frag2         1.00     19 A               2
                        (      15.863 eV)
   106     106       --         0.607 au  frag2         1.00     20 A               2
                        (      16.504 eV)
   107     107       --         0.656 au  frag2         1.00     21 A               2
                        (      17.838 eV)
   108     108       --         0.674 au  frag2         1.00     22 A               2
                        (      18.350 eV)
   109     109       --         0.707 au  frag2         1.00     23 A               2
                        (      19.249 eV)
   110     110       --         0.753 au  frag2         1.00     24 A               2
                        (      20.490 eV)
   111     111       --         0.775 au  frag2         1.00     25 A               2
                        (      21.080 eV)
   112     112       --         0.880 au  frag2         1.00     26 A               2
                        (      23.948 eV)
   113     113       --         0.890 au  frag2         1.00     27 A               2
                        (      24.217 eV)
   114     114       --         0.924 au  frag2         1.00     28 A               2
                        (      25.152 eV)
   115     115       --         0.935 au  frag2         1.00     29 A               2
                        (      25.437 eV)
   116     116       --         0.960 au  frag2         1.00     30 A               2
                        (      26.134 eV)
   117     117       --         1.055 au  frag2         1.00     31 A               2
                        (      28.703 eV)
   118     118       --         1.095 au  frag2         1.00     32 A               2
                        (      29.784 eV)
   119     119       --         1.123 au  frag2         1.00     33 A               2
                        (      30.548 eV)
   120     120       --         1.206 au  frag2         1.00     34 A               2
                        (      32.819 eV)
   121     121       --         1.351 au  frag2         1.00     35 A               2
                        (      36.753 eV)
   122     122       --         1.368 au  frag2         1.00     36 A               2
                        (      37.215 eV)
   123     123       --         1.563 au  frag2         1.00     37 A               2
                        (      42.527 eV)
   124     124       --         1.592 au  frag2         1.00     38 A               2
                        (      43.309 eV)
   125     125       --         1.626 au  frag2         1.00     39 A               2
                        (      44.232 eV)
   126     126       --         1.645 au  frag2         1.00     40 A               2
                        (      44.760 eV)
   127     127       --         1.746 au  frag2         1.00     41 A               2
                        (      47.516 eV)
   128     128       --         1.871 au  frag2         1.00     42 A               2
                        (      50.904 eV)
   129     129       --         1.898 au  frag2         1.00     43 A               2
                        (      51.651 eV)
   130     130       --         1.962 au  frag2         1.00     44 A               2
                        (      53.384 eV)
   131     131       --         2.128 au  frag2         1.00     45 A               2
                        (      57.907 eV)
   132     132       --         2.151 au  frag2         1.00     46 A               2
                        (      58.523 eV)
   133     133       --         2.239 au  frag2         1.00     47 A               2
                        (      60.930 eV)
   134     134       --         2.678 au  frag2         1.00     48 A               2
                        (      72.878 eV)
   135     135       --         2.683 au  frag2         1.00     49 A               2
                        (      73.001 eV)
   136     136       --         2.831 au  frag2         1.00     50 A               2
                        (      77.045 eV)
   137     137       --         2.957 au  frag2         1.00     51 A               2
                        (      80.462 eV)
   138     138       --         3.009 au  frag2         1.00     52 A               2
                        (      81.867 eV)
   139     139       --         3.028 au  frag2         1.00     53 A               2
                        (      82.402 eV)
   140     140       --         3.225 au  frag2         1.00     54 A               2
                        (      87.743 eV)
   141     141       --         3.340 au  frag2         1.00     55 A               2
                        (      90.890 eV)
   142     142       --         3.397 au  frag2         1.00     56 A               2
                        (      92.437 eV)
   143     143       --         3.556 au  frag2         1.00     57 A               2
                        (      96.760 eV)
   144     144       --         3.627 au  frag2         1.00     58 A               2
                        (      98.696 eV)
   145     145       --         3.904 au  frag2         1.00     59 A               2
                        (     106.238 eV)
   146     146       --         4.019 au  frag2         1.00     60 A               2
                        (     109.373 eV)
   147     147       --         4.139 au  frag2         1.00     61 A               2
                        (     112.630 eV)
   148     148       --         4.196 au  frag2         1.00     62 A               2
                        (     114.166 eV)
   149     149       --         4.418 au  frag2         1.00     63 A               2
                        (     120.212 eV)
   150     150       --         4.919 au  frag2         1.00     64 A               2
                        (     133.843 eV)
   151     151       --         4.985 au  frag2         1.00     65 A               2
                        (     135.656 eV)
   152     152       --         4.988 au  frag2         1.00     66 A               2
                        (     135.733 eV)
   153     153       --         5.225 au  frag2         1.00     67 A               2
                        (     142.187 eV)
   154     154       --         5.228 au  frag2         1.00     68 A               2
                        (     142.270 eV)
   155     155       --         5.936 au  frag2         1.00     69 A               2
                        (     161.534 eV)
   156     156       --         6.361 au  frag2         1.00     70 A               2
                        (     173.095 eV)
   157     157       --         6.917 au  frag2         1.00     71 A               2
                        (     188.223 eV)
   158     158       --         7.634 au  frag2         1.00     72 A               2
                        (     207.728 eV)
   159     159       --         7.706 au  frag2         1.00     73 A               2
                        (     209.691 eV)
   160     160       --         8.118 au  frag2         1.00     74 A               2
                        (     220.894 eV)
   161     161       --         8.348 au  frag2         1.00     75 A               2
                        (     227.157 eV)
   162     162       --         8.709 au  frag2         1.00     76 A               2
                        (     236.995 eV)
   163     163       --         9.366 au  frag2         1.00     77 A               2
                        (     254.869 eV)
   164     164       --         9.586 au  frag2         1.00     78 A               2
                        (     260.843 eV)
   165     165       --        13.185 au  frag2         1.00     79 A               2
                        (     358.769 eV)
   166     166       --        13.775 au  frag2         1.00     80 A               2
                        (     374.848 eV)
   167     167       --        15.133 au  frag2         1.00     81 A               2
                        (     411.781 eV)
   168     168       --        16.838 au  frag2         1.00     82 A               2
                        (     458.195 eV)
   169     169       --        17.439 au  frag2         1.00     83 A               2
                        (     474.527 eV)
   170     170       --        17.745 au  frag2         1.00     84 A               2
                        (     482.875 eV)
   171     171       --        55.969 au  frag2         1.00     85 A               2
                        (    1523.005 eV)
   172     172       --       340.267 au  frag2         1.00     86 A               2
                        (    9259.128 eV)



 ================================
 (Slater-type)  F U N C T I O N S  ***  (Basis and Fit)  ***
 ================================
  

 Atom Type    1  (O)
 ==============

 Valence Basis Sets:  16
 -----------------------
   1 S   14.800000
   1 S    8.750000
   1 S    6.650000
   2 S    7.100000
   2 S    3.200000
   2 S    2.050000
   2 S    1.500000
   2 S    0.750000
   2 P    5.700000
   2 P    3.050000
   2 P    1.650000
   2 P    1.000000
   3 D    2.500000
   3 D    1.500000
   4 F    4.000000
   4 F    2.000000

 Atom Type    2  (H)
 ==============

 Valence Basis Sets:   9
 -----------------------
   1 S    3.300000
   1 S    2.000000
   1 S    1.400000
   1 S    1.000000
   1 S    0.710000
   2 P    2.000000
   2 P    1.000000
   3 D    2.500000
   3 D    1.500000

 Atom Type    3  (O)
 ==============

 Valence Basis Sets:  16
 -----------------------
   1 S   14.800000
   1 S    8.750000
   1 S    6.650000
   2 S    7.100000
   2 S    3.200000
   2 S    2.050000
   2 S    1.500000
   2 S    0.750000
   2 P    5.700000
   2 P    3.050000
   2 P    1.650000
   2 P    1.000000
   3 D    2.500000
   3 D    1.500000
   4 F    4.000000
   4 F    2.000000

 Atom Type    4  (H)
 ==============

 Valence Basis Sets:   9
 -----------------------
   1 S    3.300000
   1 S    2.000000
   1 S    1.400000
   1 S    1.000000
   1 S    0.710000
   2 P    2.000000
   2 P    1.000000
   3 D    2.500000
   3 D    1.500000


 BAS: List of all Elementary Cartesian Basis Functions
 =====================================================

 The numbering in the list below (to the right of the function characteristics) is referred
 to in print-outs of MO eigenvectors and Mulliken populations in the BAS representation
 (as contrasted to the SFO representation).

 Notes:
 1. The functions are characterized by a polynomial prefactor (powers of x,y,z and r) and
    an exponential decay factor alpha.
 2. Since the basis sets are specific for an atom TYPE, the individual functions occur on
    all atoms of that type.
 3. The word 'Core' in the left margin signals that it is a Core Function (CF) : not a
    degree of freedom in the valence set, but only used to ensure orthogonalization of
    the other valence basis functions on the frozen Core Orbitals.


 (power of) X  Y  Z  R     Alpha  on Atom
            ==========     =====     ==========

 O                                    1
                                  ---------------------------------------------------------------------------
            0  0  0  0    14.800      1
            0  0  0  0     8.750      2
            0  0  0  0     6.650      3
            0  0  0  1     7.100      4
            0  0  0  1     3.200      5
            0  0  0  1     2.050      6
            0  0  0  1     1.500      7
            0  0  0  1     0.750      8
            1  0  0  0     5.700      9
            0  1  0  0     5.700     10
            0  0  1  0     5.700     11
            1  0  0  0     3.050     12
            0  1  0  0     3.050     13
            0  0  1  0     3.050     14
            1  0  0  0     1.650     15
            0  1  0  0     1.650     16
            0  0  1  0     1.650     17
            1  0  0  0     1.000     18
            0  1  0  0     1.000     19
            0  0  1  0     1.000     20
            2  0  0  0     2.500     21
            1  1  0  0     2.500     22
            1  0  1  0     2.500     23
            0  2  0  0     2.500     24
            0  1  1  0     2.500     25
            0  0  2  0     2.500     26
            2  0  0  0     1.500     27
            1  1  0  0     1.500     28
            1  0  1  0     1.500     29
            0  2  0  0     1.500     30
            0  1  1  0     1.500     31
            0  0  2  0     1.500     32
            3  0  0  0     4.000     33
            2  1  0  0     4.000     34
            2  0  1  0     4.000     35
            1  2  0  0     4.000     36
            1  1  1  0     4.000     37
            1  0  2  0     4.000     38
            0  3  0  0     4.000     39
            0  2  1  0     4.000     40
            0  1  2  0     4.000     41
            0  0  3  0     4.000     42
            3  0  0  0     2.000     43
            2  1  0  0     2.000     44
            2  0  1  0     2.000     45
            1  2  0  0     2.000     46
            1  1  1  0     2.000     47
            1  0  2  0     2.000     48
            0  3  0  0     2.000     49
            0  2  1  0     2.000     50
            0  1  2  0     2.000     51
            0  0  3  0     2.000     52

 H                                    2    3
                                  ---------------------------------------------------------------------------
            0  0  0  0     3.300     53   76
            0  0  0  0     2.000     54   77
            0  0  0  0     1.400     55   78
            0  0  0  0     1.000     56   79
            0  0  0  0     0.710     57   80
            1  0  0  0     2.000     58   81
            0  1  0  0     2.000     59   82
            0  0  1  0     2.000     60   83
            1  0  0  0     1.000     61   84
            0  1  0  0     1.000     62   85
            0  0  1  0     1.000     63   86
            2  0  0  0     2.500     64   87
            1  1  0  0     2.500     65   88
            1  0  1  0     2.500     66   89
            0  2  0  0     2.500     67   90
            0  1  1  0     2.500     68   91
            0  0  2  0     2.500     69   92
            2  0  0  0     1.500     70   93
            1  1  0  0     1.500     71   94
            1  0  1  0     1.500     72   95
            0  2  0  0     1.500     73   96
            0  1  1  0     1.500     74   97
            0  0  2  0     1.500     75   98

 O                                    4
                                  ---------------------------------------------------------------------------
            0  0  0  0    14.800     99
            0  0  0  0     8.750    100
            0  0  0  0     6.650    101
            0  0  0  1     7.100    102
            0  0  0  1     3.200    103
            0  0  0  1     2.050    104
            0  0  0  1     1.500    105
            0  0  0  1     0.750    106
            1  0  0  0     5.700    107
            0  1  0  0     5.700    108
            0  0  1  0     5.700    109
            1  0  0  0     3.050    110
            0  1  0  0     3.050    111
            0  0  1  0     3.050    112
            1  0  0  0     1.650    113
            0  1  0  0     1.650    114
            0  0  1  0     1.650    115
            1  0  0  0     1.000    116
            0  1  0  0     1.000    117
            0  0  1  0     1.000    118
            2  0  0  0     2.500    119
            1  1  0  0     2.500    120
            1  0  1  0     2.500    121
            0  2  0  0     2.500    122
            0  1  1  0     2.500    123
            0  0  2  0     2.500    124
            2  0  0  0     1.500    125
            1  1  0  0     1.500    126
            1  0  1  0     1.500    127
            0  2  0  0     1.500    128
            0  1  1  0     1.500    129
            0  0  2  0     1.500    130
            3  0  0  0     4.000    131
            2  1  0  0     4.000    132
            2  0  1  0     4.000    133
            1  2  0  0     4.000    134
            1  1  1  0     4.000    135
            1  0  2  0     4.000    136
            0  3  0  0     4.000    137
            0  2  1  0     4.000    138
            0  1  2  0     4.000    139
            0  0  3  0     4.000    140
            3  0  0  0     2.000    141
            2  1  0  0     2.000    142
            2  0  1  0     2.000    143
            1  2  0  0     2.000    144
            1  1  1  0     2.000    145
            1  0  2  0     2.000    146
            0  3  0  0     2.000    147
            0  2  1  0     2.000    148
            0  1  2  0     2.000    149
            0  0  3  0     2.000    150

 H                                    5    6
                                  ---------------------------------------------------------------------------
            0  0  0  0     3.300    151  174
            0  0  0  0     2.000    152  175
            0  0  0  0     1.400    153  176
            0  0  0  0     1.000    154  177
            0  0  0  0     0.710    155  178
            1  0  0  0     2.000    156  179
            0  1  0  0     2.000    157  180
            0  0  1  0     2.000    158  181
            1  0  0  0     1.000    159  182
            0  1  0  0     1.000    160  183
            0  0  1  0     1.000    161  184
            2  0  0  0     2.500    162  185
            1  1  0  0     2.500    163  186
            1  0  1  0     2.500    164  187
            0  2  0  0     2.500    165  188
            0  1  1  0     2.500    166  189
            0  0  2  0     2.500    167  190
            2  0  0  0     1.500    168  191
            1  1  0  0     1.500    169  192
            1  0  1  0     1.500    170  193
            0  2  0  0     1.500    171  194
            0  1  1  0     1.500    172  195
            0  0  2  0     1.500    173  196

 Total number of charge fitting functions (nprimf)       796
 Total number of Cartesian basis functions (naos)        196
 Total number of Cartesian core functions  (ncos)          0

1
 ***************************************************************************************************



                                              ***********************
                                              *  T E C H N I C A L  *
                                              ***********************
  



 =============================================================
 P A R A L L E L I Z A T I O N  and  V E C T O R I Z A T I O N
 =============================================================
  
 Nr of parallel processes:                                4
 Maximum vector length in NumInt loops:                 128

 IO buffersize (Mb):                                     64.000000



 =====================
 S C F   U P D A T E S
 =====================
  
 Max. nr. of cycles:                               300
 Convergence criterion:                              0.0000010000
   secondary criterion:                              0.0010000000

 Mix parameter (when DIIS does not apply):           0.2000000000
 Mixed ADIIS+DIIS will be used
    Max number of expansion vectors:                10
    Pure ADIIS when Max([F,P]) is above              0.1000000000
    Pure DIIS when Max([F,P]) is below               0.0010000000
 Automatic ElectronSmearing (in case of problematic SCF convergence) disabled



 =================
 P R E C I S I O N  ***  (General: NumInt, NeglectFunctionTails, ...)  ***
 =================
  

 NumInt:           Target precision:                 4.0000000000
 -------           Initial precision:                4.0000000000
                   Min. precision (optimization):    4.0000000000

 Neglect Functions:          Basis functions:        0.1000000000E-05
 ------------------          Fit functions:          0.1000000000E-05



 ===========================
 L I N E A R   S C A L I N G
 ===========================
  

 Cut-off radii density fit:                        0.1000000000E-07
 Overlap cut-off criterion AO matrix elements:     0.1000000000E-05
 Cut-offs for Coulomb potential and fitted density:0.1000000000E-07
 Cut-off criterion for Coulomb multipole terms:    0.1000000000E-07
 Progressive Convergence parameter:                 0.000000000    
1
 ***************************************************************************************************



                                            ***************************
                                            *  C O M P U T A T I O N  *
                                            ***************************
  

 Number of elements of the density matrix on this node (used, total):      5633     19306



 ===========================================
 Numerical Integration : Fuzzy Cells (Becke)
 ===========================================
  
 Becke grid quality: NORMAL         
  
 Lebedev angular grid order:             min:  11 max:  23
 Nr. of radial points:                   min:  46 max:  58

 Total nr. of points:      39378
 Nr. of blocks:              308
 Block length:               128
 Nr. of dummy points:         46


 Test of Precision of the Numerical Integration Grid
 ===================================================

 Integral of the Total Core Density:                   0.00000000000000



 ========================
 Density Fitting (zlmFit)
 ========================
  
 ZlmFit Fit Quality: NORMAL         
  
 Max L-expansion:                        min:   6 max:   7
 Nr. of radial interpolation points:     min:  39 max:  60



 =====
 S C F  ***  ScaSCF  ***
 =====
  
 Initial density matrix is calculated as sum of fragments

 CYCLE    1
 SCF Error: norm([F,P])=      0.219394463195, max([F,P])=      0.097273240982
 orbitals (Q,E):
 ---------------
 A :1...20           ( 2.00   -18.8073)  ( 2.00   -18.7638)  ( 2.00    -0.9548)  ( 2.00    -0.9092)
                     ( 2.00    -0.5045)  ( 2.00    -0.4648)  ( 2.00    -0.3781)  ( 2.00    -0.3328)
                     ( 2.00    -0.2945)  ( 2.00    -0.2543)  ( 0.00    -0.0408)  ( 0.00     0.0029)
                     ( 0.00     0.0274)  ( 0.00     0.0523)  ( 0.00     0.0769)  ( 0.00     0.0957)
                     ( 0.00     0.1398)  ( 0.00     0.1418)  ( 0.00     0.1579)  ( 0.00     0.1897)

 CYCLE    2
   MIX coefficients:  0.8000  0.2000
 SCF Error: norm([F,P])=      0.049595794356, max([F,P])=      0.013897591850
 orbitals (Q,E):
 ---------------
 A :1...11           ( 2.00   -18.8059)  ( 2.00   -18.7546)  ( 2.00    -0.9555)  ( 2.00    -0.9045)
                     ( 2.00    -0.5054)  ( 2.00    -0.4609)  ( 2.00    -0.3779)  ( 2.00    -0.3288)
                     ( 2.00    -0.2940)  ( 2.00    -0.2496)  ( 0.00    -0.0413)

 CYCLE    3
  SDIIS (wt  0.000): -0.6626  1.6626
 A-DIIS (wt  1.000):  0.0000  1.0000
  DIIS coefficients:  0.0000  1.0000
 SCF Error: norm([F,P])=      0.022366805844, max([F,P])=      0.005666831644
 orbitals (Q,E):
 ---------------
 A :1...11           ( 2.00   -18.8052)  ( 2.00   -18.7366)  ( 2.00    -0.9595)  ( 2.00    -0.8932)
                     ( 2.00    -0.5098)  ( 2.00    -0.4515)  ( 2.00    -0.3792)  ( 2.00    -0.3206)
                     ( 2.00    -0.2937)  ( 2.00    -0.2386)  ( 0.00    -0.0434)

 CYCLE    4
  SDIIS (wt  0.000):  1.5323 -1.6232  1.0909
 A-DIIS (wt  1.000): -0.0000  0.6679  0.3321
  DIIS coefficients: -0.0000  0.6679  0.3321
 SCF Error: norm([F,P])=      0.039246006122, max([F,P])=      0.011069617085
 orbitals (Q,E):
 ---------------
 A :1...11           ( 2.00   -18.8087)  ( 2.00   -18.7489)  ( 2.00    -0.9601)  ( 2.00    -0.8984)
                     ( 2.00    -0.5102)  ( 2.00    -0.4554)  ( 2.00    -0.3804)  ( 2.00    -0.3245)
                     ( 2.00    -0.2957)  ( 2.00    -0.2438)  ( 0.00    -0.0433)

 CYCLE    5
  SDIIS (wt  1.000): -1.5914  2.1292 -0.9149  1.3771
  DIIS coefficients: -1.5914  2.1292 -0.9149  1.3771
 SCF Error: norm([F,P])=      0.004001472861, max([F,P])=      0.000779044735
 orbitals (Q,E):
 ---------------
 A :1...11           ( 2.00   -18.8081)  ( 2.00   -18.7484)  ( 2.00    -0.9593)  ( 2.00    -0.8986)
                     ( 2.00    -0.5094)  ( 2.00    -0.4557)  ( 2.00    -0.3800)  ( 2.00    -0.3246)
                     ( 2.00    -0.2953)  ( 2.00    -0.2440)  ( 0.00    -0.0429)

 CYCLE    6
  SDIIS (wt  1.000): -0.1282  0.1919 -0.0776  0.2392  0.7748
  DIIS coefficients: -0.1282  0.1919 -0.0776  0.2392  0.7748
 SCF Error: norm([F,P])=      0.000884611623, max([F,P])=      0.000258457075
 orbitals (Q,E):
 ---------------
 A :1...11           ( 2.00   -18.8082)  ( 2.00   -18.7486)  ( 2.00    -0.9593)  ( 2.00    -0.8988)
                     ( 2.00    -0.5094)  ( 2.00    -0.4558)  ( 2.00    -0.3800)  ( 2.00    -0.3247)
                     ( 2.00    -0.2953)  ( 2.00    -0.2442)  ( 0.00    -0.0429)

 CYCLE    7
  SDIIS (wt  1.000): -0.0093  0.0125 -0.0055  0.0108  0.0636  0.9279
  DIIS coefficients: -0.0093  0.0125 -0.0055  0.0108  0.0636  0.9279
 SCF Error: norm([F,P])=      0.000051689080, max([F,P])=      0.000012981571
 orbitals (Q,E):
 ---------------
 A :1...11           ( 2.00   -18.8082)  ( 2.00   -18.7486)  ( 2.00    -0.9593)  ( 2.00    -0.8988)
                     ( 2.00    -0.5094)  ( 2.00    -0.4558)  ( 2.00    -0.3800)  ( 2.00    -0.3247)
                     ( 2.00    -0.2953)  ( 2.00    -0.2442)  ( 0.00    -0.0429)

 CYCLE    8
  SDIIS (wt  1.000):  0.0003 -0.0005  0.0003 -0.0000  0.0155  0.3359  0.6485
  DIIS coefficients:  0.0003 -0.0005  0.0003 -0.0000  0.0155  0.3359  0.6485
 SCF Error: norm([F,P])=      0.000014300693, max([F,P])=      0.000002981612
 orbitals (Q,E):
 ---------------
 A :1...11           ( 2.00   -18.8082)  ( 2.00   -18.7486)  ( 2.00    -0.9593)  ( 2.00    -0.8988)
                     ( 2.00    -0.5094)  ( 2.00    -0.4558)  ( 2.00    -0.3800)  ( 2.00    -0.3247)
                     ( 2.00    -0.2953)  ( 2.00    -0.2442)  ( 0.00    -0.0429)

 CYCLE    9
  SDIIS (wt  1.000): -0.0021  0.0024 -0.0013  0.0003  0.0030  0.1202  0.3805  0.4970
  DIIS coefficients: -0.0021  0.0024 -0.0013  0.0003  0.0030  0.1202  0.3805  0.4970
 SCF Error: norm([F,P])=      0.000008372080, max([F,P])=      0.000002051877
 orbitals (Q,E):
 ---------------
 A :1...11           ( 2.00   -18.8082)  ( 2.00   -18.7486)  ( 2.00    -0.9593)  ( 2.00    -0.8988)
                     ( 2.00    -0.5094)  ( 2.00    -0.4558)  ( 2.00    -0.3800)  ( 2.00    -0.3247)
                     ( 2.00    -0.2953)  ( 2.00    -0.2442)  ( 0.00    -0.0429)

 CYCLE   10
  SDIIS (wt  1.000):  0.0001 -0.0001  0.0000 -0.0002 -0.0000  0.0099  0.0861  0.2063  0.6980
  DIIS coefficients:  0.0001 -0.0001  0.0000 -0.0002 -0.0000  0.0099  0.0861  0.2063  0.6980
 SCF Error: norm([F,P])=      0.000001620720, max([F,P])=      0.000000337505
 orbitals (Q,E):
 ---------------
 A :1...11           ( 2.00   -18.8082)  ( 2.00   -18.7486)  ( 2.00    -0.9593)  ( 2.00    -0.8988)
                     ( 2.00    -0.5094)  ( 2.00    -0.4558)  ( 2.00    -0.3800)  ( 2.00    -0.3247)
                     ( 2.00    -0.2953)  ( 2.00    -0.2442)  ( 0.00    -0.0429)

 SCF CONVERGED

 CYCLE   11
1
 ***************************************************************************************************



                                                *******************
                                                *  R E S U L T S  *
                                                *******************
  
 *** Setting up for NEW gradients in Focky
 *** Using FIT density in Focky

 Orbital Energies, per Irrep and Spin:
 ======================================
                        Occup              E (au)              E (eV)       Diff (eV) with prev. cycle
                        -----      --------------------        ------       --------------------------
 A
               1        2.000     -0.18808185070370E+02      -511.797              -4.63E-07
               2        2.000     -0.18748578845757E+02      -510.175               3.30E-07
               3        2.000     -0.95927003198369E+00       -26.103              -2.26E-07
               4        2.000     -0.89875049323687E+00       -24.456               1.42E-07
               5        2.000     -0.50944565637372E+00       -13.863              -1.78E-07
               6        2.000     -0.45583422590317E+00       -12.404               1.38E-07
               7        2.000     -0.38001397581293E+00       -10.341              -6.53E-08
               8        2.000     -0.32471708557014E+00        -8.836               1.02E-07
               9        2.000     -0.29534646461003E+00        -8.037              -1.24E-07
              10        2.000     -0.24417916886041E+00        -6.644               1.39E-07
              11        0.000     -0.42874136334066E-01        -1.167
              12        0.000      0.56779564724100E-02         0.155
              13        0.000      0.25101669387655E-01         0.683
              14        0.000      0.52236849315556E-01         1.421
              15        0.000      0.78004226602376E-01         2.123
              16        0.000      0.96337553599140E-01         2.621
              17        0.000      0.13872791200732E+00         3.775
              18        0.000      0.13970844248206E+00         3.802
              19        0.000      0.16014007826515E+00         4.358
              20        0.000      0.19110597558453E+00         5.200
  
 HOMO :       10 A                -0.24417916886041E+00
 LUMO :       11 A                -0.42874136334066E-01
  


 All Electron Calculation, thus no Orbital Energies of the Core Orbitals are calculated


 Fit test: (difference of exact and fit density, squared integrated, result summed over spins)
         Sum-of-Fragments:                             0.00005292017214
         Orthogonalized Fragments:                     0.00005369005819
         SCF:                                          0.00005382583722



 ==========================
 Electron Density at Nuclei
 ==========================
  
 The electron density is calculated at points on a small sphere around the center of a nucleus.
 The printed electron density is the average electron density on these points.
 The radius of the sphere is the printed approximate finite nuclear radius.

         Atom        Nuclear Radius (Angstrom)             Electron Density (a.u.)
         ----        -------------------------             -----------------------
     1)   O                 0.0000345546                              311.96814
     2)   H                 0.0000181514                                0.45353
     3)   H                 0.0000181514                                0.45322
     4)   O                 0.0000345546                              311.95598
     5)   H                 0.0000181514                                0.43723
     6)   H                 0.0000181514                                0.45986



 =======================================
 M U L L I K E N   P O P U L A T I O N S
 =======================================
  
 The survey below gives for each atom:
 a) the total charge (Z minus electrons)
 b) the net spin polarization (nr of electrons spin-A minus spin-B)
 c) for each spin the atomic electron valence density (integrated) per L-value.

 Atom              Charge    Spin density          S         P         D         F
 ----              ------    ------------       ------    ------    ------    ------
 1 O              -0.7015                       3.8199    4.8414    0.0373    0.0030
 2 H               0.3833                       0.4767    0.1243    0.0157    0.0000
 3 H               0.3846                       0.4764    0.1235    0.0155    0.0000
 4 O              -0.8078                       3.8018    4.9662    0.0369    0.0029
 5 H               0.3267                       0.5131    0.1281    0.0322    0.0000
 6 H               0.4147                       0.4462    0.1251    0.0140    0.0000

 Populations of individual BAS functions
 ----------------------------------------
 1 O            0.0282  0.9766  0.9931 -0.0476  0.7038  0.8086  0.3674 -0.0102  0.0492  0.0610
                0.0446  0.5305  0.6246  0.4810  0.8089  0.9052  0.7527  0.1414  0.2625  0.1798
                0.0059  0.0012  0.0071 -0.0092  0.0007  0.0129  0.0037  0.0037  0.0073 -0.0030
                0.0015  0.0055  0.0006  0.0011  0.0002 -0.0024  0.0000  0.0019 -0.0031 -0.0030
                0.0021  0.0032  0.0054  0.0029  0.0034 -0.0033  0.0002 -0.0012 -0.0074 -0.0042
                0.0051  0.0016
 2 H           -0.0155  0.0447  0.7340 -0.1935 -0.0931  0.0125  0.0130  0.0245  0.0086  0.0345
                0.0312 -0.0032  0.0004  0.0028 -0.0055  0.0028  0.0119  0.0038 -0.0002 -0.0008
                0.0065  0.0025 -0.0051
 3 H           -0.0155  0.0446  0.7346 -0.1939 -0.0933  0.0239  0.0129  0.0133  0.0087  0.0328
                0.0319  0.0083  0.0024  0.0022 -0.0059  0.0008  0.0013 -0.0045  0.0005  0.0041
                0.0067  0.0011 -0.0014
 4 O            0.0280  0.9794  0.9955 -0.0540  0.7129  0.7832  0.3681 -0.0113  0.0466  0.0496
                0.0572  0.5065  0.5359  0.6096  0.7438  0.7865  0.8273  0.2514  0.2133  0.3385
                0.0094  0.0037  0.0024  0.0079  0.0020 -0.0078  0.0082  0.0064  0.0013  0.0011
                0.0029 -0.0006  0.0022  0.0004  0.0018 -0.0001  0.0001 -0.0018  0.0015  0.0011
               -0.0019 -0.0027  0.0019  0.0002  0.0036  0.0029  0.0002 -0.0043  0.0041  0.0030
               -0.0038 -0.0057
 5 H           -0.0178  0.0699  0.6461 -0.0992 -0.0859  0.0136  0.0279  0.0135  0.0200  0.0233
                0.0299 -0.0013  0.0022  0.0006  0.0088  0.0028 -0.0042  0.0008  0.0090  0.0019
                0.0049  0.0035  0.0031
 6 H           -0.0163  0.0492  0.7599 -0.2270 -0.1196  0.0242  0.0118  0.0152  0.0286  0.0133
                0.0320  0.0106  0.0026  0.0028 -0.0038  0.0006 -0.0032 -0.0050 -0.0011  0.0025
                0.0042 -0.0003  0.0040

 Gross Charges per Atom (Z minus electrons)
 ==========================================
            -0.7015    0.3833    0.3846   -0.8078    0.3267    0.4147
 Net Total:  0.00000000


 Atom-Atom Population Matrix (off-diagonal elements not doubled)
 ===============================================================

     1 :     8.0001
     2 :     0.3322    0.2467
     3 :     0.3298    0.0382    0.2464
     4 :    -0.0216    0.0010    0.0018    8.1305
     5 :     0.0606   -0.0013   -0.0007    0.3633    0.2256
     6 :     0.0005    0.0000   -0.0000    0.3328    0.0258    0.2262


 Frag-Frag Population Matrix (off-diagonal elements not doubled)
 ===============================================================

     1 :     9.8935
     2 :     0.0402   10.0262



 =================================================
 H I R S H F E L D   C H A R G E   A N A L Y S I S
 =================================================
  
 For each fragment: the (numerical) integral of rho(scf) * rho(fragment)/rho(sum-of-fragments)
 (nuclear charges are included, electrons are counted negative)

 The fragments and their ordering are defined in the early G E O M E T R Y output section.
 If you use single-atom fragments, this usually implies that all atoms of the same
 chemical type are grouped together. This may not be the order in which you listed them
 in the input file!

    1  frag1                     0.0288
    2  frag2                    -0.0288

 Sum of these charges (accuracy NumInt/Tails) =           0.00002160



 =============================
 V O R O N O I   C H A R G E S
 =============================
  
 For each atom: the (numerical) integral of the total electronic charge density in its Voronoi cell,
 i.e. the region of space that is closer to that atom than to any other atom.
 (cf. Wigner-Seitz cells in crystals)

 Within the Voronoi cell the subintegrals over the atomic sphere and the remaining part are evaluated
 separately to give the numbers of electrons (negative charge) in these regions.
 The net total charge in the cell (including the nuclear charge) is also given.

 Values are provided for
    a) the Initial (sum-of-fragments) density
    b) the Orthogonalized-Fragments density
    c) the SCF density
    d) the Voronoi Deformation Density (VDD): the difference SCF-Initial for the complete atomic cell


  Atom                Initial                    OrthFrag                   SCF
             Sphere RestCell NetTotal   Sphere RestCell NetTotal   Sphere RestCell NetTotal      VDD
 -----       ------------------------   ------------------------   ------------------------    -----
    1 O      -2.829   -4.356    0.815   -2.833   -4.361    0.806   -2.830   -4.360    0.809   -0.005
    2 H      -0.104   -1.236   -0.340   -0.104   -1.236   -0.340   -0.103   -1.218   -0.322    0.018
    3 H      -0.104   -1.250   -0.354   -0.104   -1.250   -0.355   -0.103   -1.232   -0.336    0.019
    4 O      -2.829   -4.480    0.691   -2.831   -4.489    0.679   -2.830   -4.508    0.662   -0.030
    5 H      -0.102   -1.364   -0.466   -0.103   -1.341   -0.444   -0.100   -1.355   -0.455    0.011
    6 H      -0.104   -1.241   -0.346   -0.104   -1.242   -0.347   -0.105   -1.255   -0.359   -0.014
 ---------------------------------------------------------------------------------------------------
 Total NetCharge:               0.000                      0.000                      0.000    0.000
 (accuracy NumInt/Tails)

 Remark: the 'NetTotal' Voronoi charges often do not match the Mulliken and/or Hirshfeld charges very
 well. This is caused by the fact that chemically different atoms are not treated in accordance with
 their relative sizes. (Voronoi cells are defined by boundary planes halfway between the atoms.)
 However, the CHANGES in charge, comparing 'Initial' to 'SCF' for instance, do give a fair indication
 of the flow of charge caused by the relaxation from sum-of-fragments to self-consistency.

 Warning: the absolute accuracy of the VDD charges obtained using the Fuzzy Cells (Becke) integration
 scheme is much poorer than the one obtained with an 'equivalent' Voronoi integration grid. 



 =================================================================
 M U L T I P O L E   D E R I V E D   C H A R G E   A N A L Y S I S
 =================================================================

 This charge analysis uses the atomic multipoles (obtained from the fitted density) up to some level X,
 and reconstructs these multipoles exactly (up to level X) by distributing charges over all atoms.
 This is achieved by using Lagrange multipliers and a weight function to keep the multipoles local.

 Dummy atoms can be included (by setting INCDUM in MDC-block to 1) to obtain a fractional charge.
 This is generally useful and necessary only for small symmetrical molecules, when there are not
 enough degrees of freedom to reconstruct the multipoles.

 Since the atomic multipoles are reconstructed up to level X,
 the molecular multipoles are represented also up to level X.
 The recommended level is to reconstruct up to quadrupole : -> MDC-q charges.

 See: M. Swart, P.Th. van Duijnen, J.G. Snijders, J.Comput.Chem., (2001), p. 79-88.

 ------------------------------------------------------------- 
 Atomic electronic multipole moments from SCF equations (a.u.)
 ------------------------------------------------------------- 

   atom        charge        dip-x     dip-y     dip-z      quad-xx   quad-xy   quad-xz   quad-yy   quad-yz   quad-zz
 --------------------------------------------------------------------------------------------------------------------
    1 O     -0.133151     0.359271 -0.140529  0.123569     0.116804  0.058158 -0.135047 -0.698624 -0.070655  0.581820
    2 H      0.109005     0.007453 -0.016208  0.091890    -0.032018 -0.003767  0.017127 -0.120901 -0.021168  0.152919
    3 H      0.109055     0.067370 -0.000193 -0.064796     0.077573  0.003391 -0.064578 -0.123293 -0.011346  0.045720
    4 O     -0.227590    -0.204206  0.405498 -0.050374     0.450071  0.143890  0.416507  0.229248  0.133005 -0.679319
    5 H      0.060521     0.017187  0.031704  0.010782     0.000513  0.037058  0.036622  0.086632  0.027766 -0.087145
    6 H      0.082159    -0.076970  0.000740 -0.032761     0.129078 -0.004702  0.080492 -0.026464  0.005708 -0.102614

 --------------------------------------- 
 Multipole derived atomic charges (a.u.)
 --------------------------------------- 

 The MDC-m charges are just the Monopole terms in the multipole expansion, while for the MDC-d charges
 also the Dipoles are reconstructed. The usually preferred charges are the MDC-q charges.
 These reconstruct the Monopoles, Dipoles and Quadrupoles (both atomic AND molecular).

        Atom    Level:     MDC-m        MDC-d        MDC-q
 ---------------------------------------------------------
     1     O           -0.133151    -0.613386    -0.565395
     2     H            0.109005     0.338545     0.308237
     3     H            0.109055     0.337131     0.307025
     4     O           -0.227590    -0.666685    -0.628137
     5     H            0.060521     0.277368     0.289176
     6     H            0.082159     0.327027     0.289093

 ------------------------------------------------ 
 Average absolute deviations in atomic multipoles
 ------------------------------------------------ 

 Stated here are the average differences between the atomic multipoles
 and the reconstructed atomic multipoles (from the distributed charges).
 If these values are not zero, this means there are not enough degrees of freedom,
 to be able to reconstruct the atomic multipoles. (This usually happens only
 for small and/or highly symmetric molecules). If this is the case, one could add
 dummy atoms as extra point charges (and setting INCDUM in MDC-block to 1).

 Level:                                 MDC-d        MDC-q
 ---------------------------------------------------------
 Charge   (a.u.)                       0.0000       0.0000
 Dipole   (Debye)                      0.0000       0.0886
 Quad.    (a.u.)                       0.1072       0.0301

 --------------------------------------- 
 Represented molecular multipole moments
 --------------------------------------- 

 Given here are the Molecular multipole moments from the atomic charges, and from the Fit Density.
 Note that the atomic charges represent the latter, NOT the ones from the Exact density.

            Q (a.u.)             Dipole moment (Debye)                                          Quadrupole moment (a.u.)
                                 x         y         z              xx        xy        xz        yy        yz        zz
------------------------------------------------------------------------------------------------------------------------
MDC-m         0.0000        0.8558    1.2739    0.4432          1.6080   -1.0680    0.0376   -3.1109   -0.7407    1.5029
MDC-d         0.0000        1.2882    1.9881    0.6423          5.1971   -0.3156    1.3082   -8.1208   -0.8868    2.9238
MDC-q        -0.0000        1.2322    1.8755    0.6164          4.7344   -0.5760    1.0713   -7.5721   -0.9607    2.8377
 
Fit.Dens.     0.0000        1.2882    1.9881    0.6423          5.6501   -0.4305    1.2675   -8.8335   -1.0218    3.1834



 =============
 Dipole Moment  ***  (Debye)  ***
 =============
  
 Vector   :         1.28902339      1.98921482      0.64237135
 Magnitude:         2.45584972

 This molecular dipole moment is calculated with analytic integration



 =========================================
 Quadrupole Moment (Buckingham convention)  ***  (a.u.)  ***
 =========================================
  
      quad-xx        quad-xy        quad-xz        quad-yy        quad-yz        quad-zz
      5.65472009    -0.31297436     1.44444083    -8.84016862    -0.99060990     3.18544854

 This molecular quadrupole moment is calculated with analytic integration
1



                                             *************************
                                             *  SFO MO coefficients  *
                                             *************************
  


                                       === A ===
 MOs expanded in CFs+SFOs
 ========================

 The SFOs have been characterized in an earlier part of output.
 To deduce the bonding / antibonding nature of SFO combinations in an MO, consider the products
 of the coefficients AND THE OVERLAP between the SFOs (may be NEGATIVE). The SFO overlap matrix
 is printed later, in the SFO Populations section.

 (The CF coefficients are not printed)

 MOs :      1        2        3        4        5        6        7        8        9       10
 occup:   2.00     2.00     2.00     2.00     2.00     2.00     2.00     2.00     2.00     2.00
 CF+SFO
     1   1.0000   0.0000  -0.0004  -0.0006   0.0000  -0.0027   0.0011   0.0015  -0.0002   0.0000
     2   0.0002   0.0002   0.9933  -0.0836   0.0001  -0.0500   0.0139   0.0240  -0.0009   0.0006
     3  -0.0000   0.0000   0.0000  -0.0000  -0.9981  -0.0006  -0.0003  -0.0007  -0.0002  -0.0248
     4   0.0001   0.0001   0.0056   0.0052   0.0001   0.1454  -0.9549   0.2215   0.0213  -0.0007
     5  -0.0002  -0.0001  -0.0059  -0.0074   0.0000  -0.1173   0.0381   0.4143  -0.8846  -0.0045
     6   0.0002   0.0002  -0.0026  -0.0018   0.0000   0.0044  -0.0019  -0.0082  -0.0042   0.0000
     7   0.0000  -0.0000  -0.0000   0.0000  -0.0073  -0.0000   0.0000   0.0001  -0.0000  -0.0000
     8   0.0001   0.0001  -0.0005  -0.0010   0.0000  -0.0019   0.0107  -0.0035  -0.0014   0.0001
     9  -0.0001  -0.0001   0.0015   0.0004  -0.0000   0.0018  -0.0018  -0.0006   0.0040  -0.0000
    10  -0.0000   0.0000   0.0000  -0.0000  -0.0023   0.0000   0.0000  -0.0000   0.0000   0.0013
    11  -0.0001  -0.0001   0.0025   0.0006  -0.0000   0.0046  -0.0076  -0.0048   0.0138   0.0000
    12  -0.0000  -0.0000   0.0002  -0.0001  -0.0000  -0.0009   0.0012   0.0009   0.0016  -0.0001
    13  -0.0000   0.0000   0.0000  -0.0000   0.0009  -0.0000   0.0000   0.0000   0.0000   0.0034
    14   0.0000  -0.0000   0.0000  -0.0000  -0.0042  -0.0000  -0.0000   0.0000  -0.0000   0.0002
    15  -0.0002  -0.0001   0.0012   0.0001  -0.0000  -0.0006  -0.0086   0.0032   0.0050  -0.0000
    16  -0.0001  -0.0000   0.0002  -0.0008  -0.0000  -0.0019  -0.0037   0.0031   0.0067  -0.0001
    17  -0.0000  -0.0000  -0.0007   0.0015  -0.0000   0.0042  -0.0037  -0.0019   0.0002  -0.0001
    18  -0.0000   0.0000   0.0000  -0.0000  -0.0001  -0.0000  -0.0000   0.0000   0.0000   0.0006
    19   0.0000   0.0000   0.0000  -0.0000   0.0005   0.0000  -0.0000  -0.0000  -0.0000  -0.0007
    20  -0.0000  -0.0000  -0.0005  -0.0002  -0.0000  -0.0018   0.0003   0.0014  -0.0007  -0.0000
    21  -0.0000  -0.0000   0.0001  -0.0006   0.0000  -0.0014  -0.0021   0.0008   0.0022   0.0000
    22   0.0000  -0.0000  -0.0003   0.0000   0.0000  -0.0012   0.0013   0.0011  -0.0005   0.0000
    23   0.0000  -0.0000  -0.0000  -0.0000  -0.0010   0.0000   0.0000   0.0000  -0.0000  -0.0006
    24   0.0000  -0.0000   0.0000   0.0000  -0.0007   0.0000  -0.0000   0.0000   0.0000   0.0016
    25   0.0000   0.0000  -0.0001  -0.0001   0.0000   0.0002  -0.0006  -0.0001  -0.0013   0.0000
    26   0.0000  -0.0000   0.0000   0.0000  -0.0011   0.0000   0.0000   0.0000   0.0000   0.0014
    27  -0.0000  -0.0000  -0.0009  -0.0002   0.0000  -0.0025   0.0019   0.0022   0.0006  -0.0001
    28   0.0001   0.0000   0.0000   0.0006   0.0000   0.0017   0.0020  -0.0019  -0.0024   0.0000
    29  -0.0000   0.0000   0.0000  -0.0000  -0.0000  -0.0000  -0.0000  -0.0000   0.0000  -0.0004
    30  -0.0000  -0.0000   0.0003   0.0001  -0.0000   0.0002  -0.0010   0.0002   0.0011  -0.0000
    31  -0.0000  -0.0000   0.0001  -0.0004  -0.0000  -0.0013  -0.0003   0.0010   0.0028  -0.0000
    32  -0.0000   0.0000  -0.0005  -0.0004   0.0000  -0.0017   0.0008   0.0011  -0.0009   0.0000
    33  -0.0000   0.0000   0.0000  -0.0000   0.0000   0.0000  -0.0000   0.0000   0.0000  -0.0003
    34   0.0000  -0.0000   0.0000   0.0000  -0.0003  -0.0000  -0.0000   0.0000  -0.0000   0.0002
    35   0.0000  -0.0000   0.0005   0.0003  -0.0000   0.0015  -0.0002  -0.0010   0.0008  -0.0000
    36   0.0000  -0.0000   0.0000   0.0002   0.0000   0.0007  -0.0004  -0.0006   0.0010  -0.0000
    37  -0.0000  -0.0000  -0.0000   0.0000   0.0001  -0.0000   0.0000  -0.0000  -0.0000  -0.0003
    38  -0.0000   0.0000   0.0000  -0.0000   0.0000  -0.0000   0.0000   0.0000   0.0000   0.0001
    39   0.0000  -0.0000  -0.0001  -0.0000   0.0000  -0.0006   0.0003   0.0003   0.0009  -0.0000
    40   0.0000  -0.0000   0.0000   0.0000   0.0001   0.0000  -0.0000  -0.0000   0.0000   0.0000
    41   0.0000   0.0000  -0.0001  -0.0001   0.0000  -0.0003   0.0000   0.0000  -0.0004   0.0000
    42  -0.0000   0.0000  -0.0000  -0.0000   0.0002  -0.0000   0.0000   0.0000   0.0000  -0.0001
    43  -0.0000   0.0000  -0.0003  -0.0003  -0.0000  -0.0008  -0.0003   0.0006   0.0010  -0.0000
    44   0.0000   0.0000  -0.0000  -0.0001   0.0000  -0.0001   0.0001   0.0001  -0.0002   0.0000
    45  -0.0000  -0.0000  -0.0000  -0.0000  -0.0002  -0.0000  -0.0000  -0.0000   0.0000  -0.0001
    46   0.0000  -0.0000  -0.0000  -0.0000  -0.0000  -0.0003   0.0004   0.0002  -0.0004  -0.0000
    47   0.0000  -0.0000   0.0000   0.0000  -0.0004   0.0000   0.0000   0.0000   0.0000   0.0003
    48  -0.0000  -0.0000   0.0001   0.0001   0.0000   0.0004  -0.0004  -0.0003   0.0001  -0.0000
    49  -0.0000   0.0000   0.0000  -0.0000  -0.0008   0.0000  -0.0000   0.0000   0.0000   0.0005
    50  -0.0000  -0.0000   0.0001   0.0002  -0.0000   0.0008  -0.0012  -0.0006   0.0002   0.0000
    51  -0.0000  -0.0000   0.0001   0.0001   0.0000   0.0005  -0.0002  -0.0002   0.0000  -0.0000
    52  -0.0000   0.0000   0.0004   0.0000  -0.0000   0.0006  -0.0002  -0.0006   0.0008   0.0000
    53  -0.0000  -0.0000  -0.0000  -0.0000   0.0002  -0.0000   0.0000   0.0000  -0.0000   0.0002
    54   0.0000   0.0000  -0.0000  -0.0000  -0.0002  -0.0000  -0.0000   0.0000  -0.0000   0.0001
    55  -0.0000   0.0000   0.0000  -0.0000   0.0000  -0.0002  -0.0000   0.0000   0.0001   0.0000
    56   0.0000   0.0000  -0.0000  -0.0000   0.0000   0.0000  -0.0000   0.0000  -0.0000   0.0000
    57  -0.0000   0.0000   0.0000  -0.0001   0.0000  -0.0006  -0.0000   0.0003  -0.0000   0.0000
    58   0.0000  -0.0000   0.0001   0.0001   0.0000   0.0004  -0.0001  -0.0003   0.0001  -0.0000
    59   0.0000  -0.0000  -0.0000   0.0000   0.0001  -0.0000   0.0000  -0.0000  -0.0000  -0.0001
    60   0.0000  -0.0000  -0.0000   0.0000   0.0000   0.0001  -0.0001  -0.0001  -0.0000   0.0000
    61  -0.0000  -0.0000  -0.0000  -0.0001  -0.0000  -0.0001   0.0001   0.0001  -0.0001   0.0000
    62  -0.0000   0.0000  -0.0000  -0.0000   0.0000  -0.0000   0.0000   0.0000  -0.0000  -0.0000
    63   0.0000  -0.0000  -0.0000   0.0000   0.0001  -0.0000  -0.0000  -0.0000  -0.0000  -0.0001
    64   0.0000  -0.0000  -0.0000  -0.0000   0.0000   0.0000   0.0000   0.0000  -0.0000   0.0001
    65   0.0000   0.0000  -0.0000  -0.0000  -0.0000  -0.0001   0.0003   0.0001  -0.0001  -0.0000
    66  -0.0000  -0.0000   0.0000   0.0001   0.0000   0.0002  -0.0001  -0.0001   0.0001  -0.0000
    67  -0.0000  -0.0000  -0.0000  -0.0000   0.0000   0.0000  -0.0000   0.0000   0.0000   0.0001
    68   0.0000   0.0000  -0.0000  -0.0000  -0.0002  -0.0000   0.0000   0.0000   0.0000   0.0001
    69  -0.0000  -0.0000  -0.0000  -0.0000  -0.0000  -0.0000   0.0001   0.0000  -0.0000  -0.0000
    70   0.0000   0.0000  -0.0000  -0.0000  -0.0000  -0.0001   0.0001   0.0001  -0.0001   0.0000
    71  -0.0000   0.0000   0.0000  -0.0000  -0.0001  -0.0000  -0.0000   0.0000   0.0000   0.0000
    72   0.0000  -0.0000  -0.0001   0.0000   0.0000  -0.0001  -0.0001   0.0001  -0.0001   0.0000
    73   0.0000   0.0000  -0.0000  -0.0000   0.0000  -0.0001   0.0001   0.0001  -0.0001  -0.0000
    74  -0.0000  -0.0000   0.0000   0.0000  -0.0000   0.0001  -0.0001  -0.0001   0.0002  -0.0000
    75  -0.0000  -0.0000  -0.0000  -0.0000  -0.0001   0.0000   0.0000   0.0000  -0.0000   0.0000
    76  -0.0000  -0.0000  -0.0000   0.0000   0.0001  -0.0000  -0.0000  -0.0000  -0.0000  -0.0000
    77   0.0000   0.0000  -0.0000  -0.0000  -0.0000   0.0000  -0.0000   0.0000   0.0000   0.0000
    78  -0.0000   0.0000  -0.0000  -0.0000   0.0000  -0.0001  -0.0000   0.0000   0.0000   0.0000
    79  -0.0000   0.0000   0.0000  -0.0000   0.0000  -0.0001  -0.0000   0.0001   0.0001   0.0000
    80   0.0000  -0.0000  -0.0000  -0.0000  -0.0000  -0.0000   0.0000   0.0000  -0.0000   0.0000
    81   0.0000   0.0000  -0.0000   0.0000   0.0000  -0.0000  -0.0000  -0.0000  -0.0000   0.0000
    82   0.0000   0.0000  -0.0000  -0.0000   0.0000  -0.0000   0.0000  -0.0000  -0.0000  -0.0000
    83   0.0000   0.0000  -0.0000  -0.0000  -0.0000  -0.0000   0.0000   0.0000   0.0000   0.0001
    84  -0.0000   0.0000  -0.0000  -0.0000   0.0000  -0.0001   0.0000   0.0000  -0.0000   0.0000
    85  -0.0000  -0.0000   0.0000   0.0000  -0.0000   0.0001  -0.0000  -0.0001   0.0000  -0.0000
    86  -0.0000  -0.0000   0.0000   0.0000  -0.0000   0.0000  -0.0000  -0.0000   0.0000  -0.0000
[...]
  172   -8.69901735687335E-15 -2.08007265925514E-12  5.76495238536773E-13 -6.29013578419893E-13

 column         169                   170                   171                   172
 row
  169    1.00000000000019E+00
  170   -4.20084323074420E-13  9.99999999999495E-01
  171    3.73232840148813E-13  1.55899730263085E-12  1.00000000000089E+00
  172   -3.56120677651867E-13 -1.87279856065422E-12 -1.01064599397627E-12  9.99999999946999E-01


 SFO contributions (%) per orbital
 (multiplication by the orbital occupation yields the SFO Gross Populations)

 Orb.:        1      2      3      4      5      6      7      8      9     10     11     12     13     14
 occup:     2.00   2.00   2.00   2.00   2.00   2.00   2.00   2.00   2.00   2.00   0.00   0.00   0.00   0.00
 CF+SFO     ----   ----   ----   ----   ----   ----   ----   ----   ----   ----   ----   ----   ----   ----
 ------
      1:  100.00   0.00   0.00  -0.00   0.00   0.00   0.00   0.00   0.00  -0.00  -0.00  -0.00  -0.00   0.00
      2:    0.00  -0.00  99.08   0.58   0.00   0.06   0.01   0.01   0.00   0.00   0.00   0.01   0.00   0.00
      3:   -0.00   0.00  -0.00   0.00  99.80   0.00   0.00   0.00   0.00   0.02  -0.00  -0.00   0.00   0.00
      4:    0.00  -0.00   0.01   0.02   0.00   2.63  92.04   4.20   0.02   0.00   0.00   0.01   0.00   0.03
      5:    0.00  -0.00   0.01   0.04   0.00   2.25   0.15  18.31  77.10   0.00  -0.02   0.05   0.00  -0.10
      6:    0.00  -0.00  -0.00  -0.02  -0.00   0.03  -0.00   0.01   0.01  -0.00  99.32   6.67   0.00  -0.47
      7:    0.00   0.00  -0.00   0.00   0.00   0.00  -0.00  -0.00   0.00   0.00   0.00   0.00  99.97   0.00
      8:   -0.00  -0.00  -0.00  -0.03  -0.00  -0.00   0.01   0.01   0.00   0.00   0.29   7.73  -0.00  66.05
     11:   -0.00  -0.00  -0.00  -0.01  -0.00  -0.06   0.02  -0.00   0.06   0.00  -0.01   0.92  -0.00  -1.42
     16:   -0.00  -0.00  -0.00   0.02  -0.00   0.03   0.00   0.03   0.05   0.00   0.01   0.20  -0.00  -1.23
     87:   -0.00 100.00  -0.00  -0.00   0.00  -0.00   0.00  -0.00   0.00   0.00  -0.00  -0.00   0.00   0.00
     88:   -0.00   0.00   0.58  99.38   0.00  -0.00   0.02  -0.00   0.05  -0.00   0.01  -0.00  -0.00  -0.01
     89:   -0.00  -0.00   0.05   0.01   0.00  95.00   2.77   0.14   1.83   0.00  -0.00   0.02   0.00   0.01
     90:   -0.00  -0.00   0.01   0.00   0.00   0.00   3.91  77.22  18.64   0.00  -0.00   0.00   0.00   0.04
     91:   -0.00  -0.00   0.00  -0.00   0.02   0.00   0.00   0.00   0.00  99.94   0.00  -0.00   0.01   0.00
     92:   -0.00   0.00   0.11  -0.00  -0.00  -0.00   0.31  -0.01   0.56  -0.00   4.53  60.66   0.01   1.40
     93:   -0.00   0.00   0.13  -0.00   0.00   0.00   0.13  -0.01   0.28  -0.00  -4.02  23.70   0.00   1.87
     94:   -0.00   0.00   0.01  -0.00   0.00   0.00   0.07  -0.01  -0.00  -0.00   0.10   0.95   0.00  33.80
     95:    0.00  -0.00  -0.03  -0.00   0.00  -0.00   0.12   0.05   0.78   0.00  -0.58  -0.24  -0.00  -2.62


 Summation over all MOs, multiplied by occupation: Total SFO Gross Populations in this Irrep
 ===========================================================================================

     2.00    1.99    2.00    1.98    1.96    0.00    0.00   -0.00    0.00    0.00    0.00    0.00
     0.00   -0.00    0.00    0.00   -0.00   -0.00   -0.00    0.00    0.00   -0.00    0.00    0.00
    -0.00   -0.00    0.00    0.00   -0.00   -0.00   -0.00    0.00    0.00    0.00    0.00    0.00
     0.00   -0.00    0.00    0.00   -0.00    0.00    0.00    0.00    0.00   -0.00   -0.00   -0.00
    -0.00   -0.00   -0.00   -0.00   -0.00    0.00    0.00    0.00   -0.00   -0.00    0.00   -0.00
    -0.00    0.00   -0.00   -0.00    0.00    0.00    0.00    0.00    0.00   -0.00   -0.00   -0.00
    -0.00   -0.00   -0.00    0.00   -0.00    0.00   -0.00    0.00   -0.00   -0.00    0.00    0.00
    -0.00    0.00    2.00    2.00    2.00    2.00    2.00    0.02    0.01    0.00    0.02    0.02
     0.00    0.00    0.00    0.00    0.00    0.00   -0.00    0.00   -0.00   -0.00    0.00    0.00
     0.00    0.00   -0.00    0.00   -0.00    0.00   -0.00    0.00    0.00    0.00    0.00    0.00
     0.00   -0.00    0.00   -0.00   -0.00   -0.00   -0.00   -0.00    0.00   -0.00   -0.00   -0.00
     0.00    0.00   -0.00   -0.00   -0.00   -0.00   -0.00    0.00   -0.00   -0.00    0.00   -0.00
     0.00   -0.00    0.00   -0.00    0.00   -0.00   -0.00   -0.00   -0.00    0.00   -0.00    0.00
     0.00   -0.00   -0.00    0.00   -0.00    0.00   -0.00    0.00    0.00   -0.00   -0.00   -0.00
    -0.00    0.00    0.00   -0.00



 List of all MOs, ordered by energy, with the most significant SFO gross populations
 ===================================================================================

 Each percentage contribution in the table below corresponds to the indicated SFO.
 In general, a SFO may be a linear combination of several Fragment Orbitals on the same,
 or on symmetry-related Fragments. Only the first 'member' of such a combination is
 specified here. A full definition of all SFOs is given in an earlier part of the output.
 The numbering of the SFOs in this table does NOT include the Core Orbitals, and starts
 from one for each symmetry representation, as in the SFO definition list earlier.

       E(eV)  Occ       MO           %     SFO (first member)   E(eV)  Occ   Fragment
 -------------------------------------------------------------------------------------

     -24.456  2.00     4 A         99.38%     2 A             -25.251  2.00     2 frag2
                                    0.58%     2 A             -25.288  2.00     1 frag1
     -13.863  2.00     5 A         99.80%     3 A             -13.123  2.00     1 frag1
                                    0.08%    13 A               6.869  0.00     2 frag2
     -12.404  2.00     6 A         95.00%     3 A             -13.072  2.00     2 frag2
                                    2.63%     4 A              -9.468  2.00     1 frag1
                                    2.25%     5 A              -7.345  2.00     1 frag1
     -10.341  2.00     7 A         92.04%     4 A              -9.468  2.00     1 frag1
                                    3.91%     4 A              -9.477  2.00     2 frag2
                                    2.77%     3 A             -13.072  2.00     2 frag2
      -8.836  2.00     8 A         77.22%     4 A              -9.477  2.00     2 frag2
                                   18.31%     5 A              -7.345  2.00     1 frag1
                                    4.20%     4 A              -9.468  2.00     1 frag1
      -8.037  2.00     9 A         77.10%     5 A              -7.345  2.00     1 frag1
                                   18.64%     4 A              -9.477  2.00     2 frag2
                                    1.83%     3 A             -13.072  2.00     2 frag2
      -6.644  2.00    10 A         99.94%     5 A              -7.338  2.00     2 frag2
                                    0.03%    13 A               6.850  0.00     1 frag1
      -1.167  0.00    11 A         99.32%     6 A              -0.815  0.00     1 frag1
                                    4.53%     6 A              -0.831  0.00     2 frag2
                                   -4.02%     7 A               0.890  0.00     2 frag2
       0.155  0.00    12 A         60.66%     6 A              -0.831  0.00     2 frag2
                                   23.70%     7 A               0.890  0.00     2 frag2
                                    7.73%     8 A               1.670  0.00     1 frag1
                                    6.67%     6 A              -0.815  0.00     1 frag1
       0.683  0.00    13 A         99.97%     7 A               0.902  0.00     1 frag1
                                    0.29%    11 A               5.170  0.00     2 frag2
       1.421  0.00    14 A         66.05%     8 A               1.670  0.00     1 frag1
                                   33.80%     8 A               1.668  0.00     2 frag2
                                   -2.62%     9 A               3.741  0.00     2 frag2
                                    1.87%     7 A               0.890  0.00     2 frag2
                                   -1.42%    11 A               5.179  0.00     1 frag1
                                    1.40%     6 A              -0.831  0.00     2 frag2
                                   -1.23%    16 A               8.169  0.00     1 frag1
       2.123  0.00    15 A         44.62%     8 A               1.668  0.00     2 frag2
                                   41.32%     8 A               1.670  0.00     1 frag1
                                   12.22%     7 A               0.890  0.00     2 frag2
                                   -1.59%     6 A              -0.831  0.00     2 frag2
                                    1.58%    12 A               5.594  0.00     2 frag2
                                    1.35%    15 A               7.978  0.00     1 frag1
       2.621  0.00    16 A         62.96%     7 A               0.890  0.00     2 frag2
                                   24.68%     6 A              -0.831  0.00     2 frag2
                                   16.92%     9 A               3.768  0.00     1 frag1
                                   15.76%     8 A               1.668  0.00     2 frag2
                                  -10.82%     8 A               1.670  0.00     1 frag1
                                   -8.11%    15 A               7.978  0.00     1 frag1
                                   -7.54%    11 A               5.179  0.00     1 frag1
                                    4.55%    10 A               4.341  0.00     2 frag2
                                    2.67%    15 A               7.982  0.00     2 frag2
                                   -2.56%     9 A               3.741  0.00     2 frag2
                                    1.84%     6 A              -0.815  0.00     1 frag1
                                   -1.42%    12 A               5.594  0.00     2 frag2
                                    1.21%    14 A               6.884  0.00     2 frag2
                                   -1.07%    17 A               9.109  0.00     1 frag1
                                   -1.04%    16 A               8.169  0.00     1 frag1
       3.775  0.00    17 A         71.60%     9 A               3.768  0.00     1 frag1
                                   19.42%    10 A               4.341  0.00     2 frag2
                                    6.33%     7 A               0.890  0.00     2 frag2
                                    4.15%     8 A               1.668  0.00     2 frag2
                                    2.99%     6 A              -0.831  0.00     2 frag2
                                   -2.44%     6 A              -0.815  0.00     1 frag1
                                   -1.47%    15 A               7.978  0.00     1 frag1
                                    1.18%    14 A               6.884  0.00     2 frag2
       3.802  0.00    18 A         88.17%    10 A               4.379  0.00     1 frag1
                                   11.31%    11 A               5.170  0.00     2 frag2



 =======================================================================
 Electrostatic potential at the Nuclei due to electrons and other nuclei
 =======================================================================
  
         Atom                  Potential
         ----                  ---------
     1)   O                  22.32814909
     2)   H                   0.96958422
     3)   H                   0.96971071
     4)   O                  22.38759886
     5)   H                   1.02802189
     6)   H                   1.02423838



 ===================================================
 ETS-NOCV-decomposition: taken restricted  fragments
 ===================================================
  
 1. Eigenvalue pairs from diagonalization of DeltaP expressed in Lowdin:
    1  -0.13681  172   0.13681
    2  -0.03107  171   0.03107
    3  -0.02700  170   0.02700
    4  -0.02346  169   0.02346
    5  -0.01776  168   0.01776
    6  -0.01532  167   0.01532
    7  -0.00583  166   0.00583
    8  -0.00528  165   0.00528
 2. Orbital Interaction Energy Contributions from each NOCV pair (in a.u.)
   1  -0.00608
   2  -0.00035
   3  -0.00025
   4  -0.00017
   5  -0.00012
   6  -0.00009
   7  -0.00002
   8  -0.00002
 3. Orbital Interaction Energy Contributions from each NOCV pair (in kcal/mol)
   1  -3.81665
   2  -0.21712
   3  -0.15494
   4  -0.10574
   5  -0.07312
   6  -0.05794
   7  -0.01410
   8  -0.01038



 =======================================================
 SFO decomposition of Delta rho k (major contributions):
 =======================================================
  
 Threshold for a NOCVs energy (in kcal/mol) is   2.00000000000000     
 Threshold for an individual SFO contribution is  1.000000000000000E-002

   1   NOCV eigenvalues:  -0.13681   0.13681, sum from all SFOs:   -0.46959E-15
       Corresponding Delta E k:  -3.81665  (kcal/mol)
        5   SFO contribution:  -0.04547
       92   SFO contribution:   0.01867
       95   SFO contribution:   0.01821
        4   SFO contribution:  -0.01635
       96   SFO contribution:   0.01491
 The rest of NOCVs:
 Corresponding Delta E rest: -0.633569819631270     
 There are no SFO contributions larger than :  1.000000000000000E-002
 Trace of (Delta P S) =  4.488440233561821E-015



 =============================
 END OF ETS-NOCV decomposition
 =============================
  
 
 
 ========================
 No memory problems found
 ========================
 
 Maximum number of active allocate calls:         754
 
 *******************************************************************************

                             A D F   E X I T
 NORMAL TERMINATION



 =================
 Timing Statistics
 =================
  
 Total Used :                     CPU=       17.12      System=        0.45     Elapsed=       18.01

 Calls  Section                     ( Mean, Percentage )
 ---------------------------------------------------------------------------------------------------
     3  ><      ................      0.00    0.00             0.00    0.00             0.00    0.01
     1  INIT    ................      0.37    2.17             0.07   15.18             0.44    2.47
     1  GEOMET  ................      0.05    0.28             0.02    3.57             0.07    0.37
     1  FRAGM   ................      0.01    0.07             0.02    4.46             0.03    0.19
     1  INPUTA  ................      0.00    0.00             0.00    0.00             0.00    0.00
     1  ATDEN   ................      0.00    0.02             0.00    0.89             0.01    0.04
     1  MAINSY  ................      0.01    0.05             0.00    0.89             0.02    0.09
     1  SYMFIT  ................      0.00    0.02             0.00    0.00             0.00    0.03
     1  CORORT  ................      0.00    0.00             0.00    0.00             0.00    0.00
     1  SYMORB  ................      0.01    0.05             0.00    0.00             0.00    0.03
     1  CLSMAT  ................      0.01    0.07             0.00    0.00             0.01    0.06
     1  ORTHON  ................      0.01    0.07             0.00    0.89             0.02    0.11
     1  GENPT   ................      0.18    1.05             0.01    2.68             0.19    1.07
     1  PTBAS   ................      0.20    1.17             0.00    0.89             0.26    1.42
    11  FOCKY   ................      0.56   36.20             0.01   22.32             0.58   35.55
    11  FOCKTR  ................      0.00    0.21             0.00    0.00             0.00    0.23
    11  SDIIS   ................      0.01    0.35             0.00    1.79             0.01    0.56
     1  COREPS  ................      0.44    2.59             0.01    1.79             0.45    2.53
     1  TOTEN   ................      1.57    9.16             0.02    3.57             1.60    8.88
     1  POPAN   ................      0.00    0.00             0.00    0.89             0.02    0.09
     1  DEBYE   ................      0.01    0.07             0.00    0.00             0.01    0.05
     1  INPUTE  ................      0.00    0.00             0.00    0.00             0.00    0.01
     1  SYMORE  ................      0.00    0.00             0.00    0.00             0.00    0.01
     1  METS    ................      0.00    0.02             0.00    0.00             0.00    0.01
     1  CETS    ................      0.02    0.14             0.01    1.79             0.10    0.58
     1  POPUL   ................      7.78   45.43             0.16   36.61             8.06   44.78
     1  EXIT PROCEDURE .........      0.14    0.79             0.01    1.79             0.15    0.85


 Currently Open Files (EXIT00)
 ====================

 Unit    Access Format  Status   Type       Ident (file)
 -------------------------------------------------------
   3      SEQ    FORM   TRANSP  NORMAL      LOGFILE
                                          ( logfile )


 Buffered I/O statistics
 =======================
 Memory available:                     67108864
 Number of records fitting in memory:     16131
 Input :   1.0% of                        84295  *4k bytes
 Output:  11.3% of                         8662  *4k bytes
 Records from serial files evicted:           0
                    others evicted:           0
 Hash table lookups:     246411 with          0 conflicts (  0.00%)

 ***************************************************************************************************
 (LOGFILE)
 <Apr02-2021> <03:22:57>  ADF 2017  RunTime: Apr02-2021 03:22:57  Nodes: 1  Procs: 4
 <Apr02-2021> <03:22:57>  Complex
 <Apr02-2021> <03:22:57>  RunType   : SINGLE POINT
 <Apr02-2021> <03:22:57>  Net Charge: 0 (Nuclei minus Electrons)
 <Apr02-2021> <03:22:57>  Symmetry  : NOSYM
 <Apr02-2021> <03:22:57>  >>>> FRAGM
  Coordinates
    Atom         X           Y           Z   (Angstrom)
    1.O        -0.008650    0.178874    0.090112
    2.H         0.279063    0.026877    1.009864
    3.H         0.824570    0.171103   -0.417672
    4.O        -1.263709   -2.321444   -0.648595
    5.H        -0.902354   -1.435104   -0.414516
    6.H        -2.145956   -2.118384   -1.007632
 <Apr02-2021> <03:22:57>  >>>> CORORT
 <Apr02-2021> <03:22:57>  >>>> CLSMAT
 <Apr02-2021> <03:22:57>  >>>> ORTHON
 <Apr02-2021> <03:22:57>  >>>> GENPT
 <Apr02-2021> <03:22:57>  Block Length= 128
 <Apr02-2021> <03:22:57>  >>>> PTBAS
 <Apr02-2021> <03:22:58>  >>>> CYCLE
 <Apr02-2021> <03:22:58>              |Error|         MaxErr       Wt(A-DIIS)
 <Apr02-2021> <03:22:58>      1      0.21939446      0.09727324
 <Apr02-2021> <03:22:59>      2      0.04959579      0.01389759    100.0
 <Apr02-2021> <03:23:00>      3      0.02236681      0.00566683    100.0
 <Apr02-2021> <03:23:00>      4      0.03924601      0.01106962    100.0
 <Apr02-2021> <03:23:01>      5      0.00400147      0.00077904      0.0
 <Apr02-2021> <03:23:01>      6      0.00088461      0.00025846      0.0
 <Apr02-2021> <03:23:02>      7      0.00005169      0.00001298      0.0
 <Apr02-2021> <03:23:02>      8      0.00001430      0.00000298      0.0
 <Apr02-2021> <03:23:03>      9      0.00000837      0.00000205      0.0
 <Apr02-2021> <03:23:04>     10      0.00000162      0.00000034      0.0
 <Apr02-2021> <03:23:04>  SCF converged
 <Apr02-2021> <03:23:04>     11      0.00000010      0.00000003      0.0
 <Apr02-2021> <03:23:05>  >>>> TOTEN
 <Apr02-2021> <03:23:06>  >>>> POPAN
 <Apr02-2021> <03:23:06>  >>>> DEBYE
 <Apr02-2021> <03:23:06>  >>>> AMETS
 <Apr02-2021> <03:23:14>   Bond Energy          -0.00693547 a.u.
 <Apr02-2021> <03:23:14>   Bond Energy          -0.18872371 eV
 <Apr02-2021> <03:23:14>   Bond Energy          -4.35       kcal/mol
 <Apr02-2021> <03:23:14>  >>>> POPUL
 <Apr02-2021> <03:23:14>  NORMAL TERMINATION
 <Apr02-2021> <03:23:14>  END
