

 Parallel Execution: Process Information
 ==============================================================================
 Rank   Node Name                              NodeID   MyNodeRank  NodeMaster
    0   grant                                     0          0          0
    1   grant                                     0          1         -1
    2   grant                                     0          2         -1
    3   grant                                     0          3         -1
 ==============================================================================


May use up to 6648MB of RAM as shared memory on node 0


title  Complex
units
  length Angstrom
end
EPRINT
  SFO eig ovl
END
xc
  GGA  becke perdew
end

ATOMS
    1.O        -0.008650    0.178874    0.090112    f=frag1
    2.H         0.279063    0.026877    1.009864    f=frag1
    3.H         0.824570    0.171103   -0.417672    f=frag1
    4.O        -1.263709   -2.321444   -0.648595    f=frag2
    5.H        -0.902354   -1.435104   -0.414516    f=frag2
    6.H        -2.145956   -2.118384   -1.007632    f=frag2
end

symmetry nosym
CHARGE 0

fragments
  frag1 frag1.t21
  frag2 frag2.t21
end

ETSNOCV ENOCV 0.001
PRINT ETSLOWDIN


end input

 *******************************************************************************
 *                                                                             *
 *  -------------------------------------                                      *
 *   Amsterdam Density Functional  (ADF)         2017                          *
 *  -------------------------------------                                      *
 *                                               r61708 2017-10-13             *
 *                                                                             *
 *                                                                             *
 *                              =================                              *
 *                              |               |                              *
 *                              |     A D F     |                              *
 *                              |               |                              *
 *                              =================                              *
 *                                                                             *
 *                                                                             *
 *   Online information and documentation:  https://www.scm.com/support/       *
 *   E-mail:  support@scm.com   info@scm.com                                   *
 *                                                                             *
 *   Scientific publications using ADF results must be properly referenced     *
 *   See the User Manuals (or the web site) for recommended citations          *
 *   The terms and conditions of the End User License Agreement apply to       *
 *   the use of ADF, https://www.scm.com/license-terms/                        *
 *                                                                             *
 **********************  x86_64_linux_intel / intelmpi  ************************
 
 Licensed to: Prof. Paola Belanzoni / University of Perugia, Department of Chemistry / Perugia / IT
 SCM User ID: u7022
  
 ADF 2017  RunTime: Apr01-2021 08:21:58  Nodes: 1  Procs: 4

 Temporary files are created in /tmp/kid_0.0o0bse


Communication costs MPI_COMM_WORLD:      2.342 usec per message,   0.0081 usec per 8-byte item
Communication costs for intra-node:      1.991 usec per message,   0.0100 usec per 8-byte item

 Complex



 ===========================
 A T T A C H E D   F I L E S
 ===========================
  



 ===============================
 M O D E L   P A R A M E T E R S
 ===============================
  
 DENSITY FUNCTIONAL POTENTIAL (scf)
    LDA:                               VWN                                      
    Gradient Corrections:              Becke88 Perdew86                        == Not Default ==

 SPIN  (restricted / unrestr.)
    Molecule:                          Restricted                               
    Fragments:                         Restricted                               

 OTHER ASPECTS
    Relativistic Corrections:          ---                                      

    Nuclear Charge Density Model:      Point Charge Nuclei                      
    Core Treatment:                    Frozen Orbital(s)                        

    Hyperfine or Zeeman Interaction:   ---                                      


 Fragment File(s)
 ----------------
 frag1:
         file : frag1.t21
         jobid: ADF 2017  RunTime: Apr01-2021 08:21:46  Nodes: 1  Procs: 4
         title: fragment1
 frag2:
         file : frag2.t21
         jobid: ADF 2017  RunTime: Apr01-2021 08:21:53  Nodes: 1  Procs: 4
         title: Fragment2



                                        ************************************
                                        *  R U N   T Y P E : SINGLE POINT  *
                                        ************************************
  



 ===============
 G E O M E T R Y  ***  3D  Molecule  ***
 ===============
  

 ATOMS
 =====                            X Y Z                    CHARGE
                                (Angstrom)             Nucl     +Core       At.Mass
                       --------------------------    ----------------       -------
    1  O              -0.0086    0.1789    0.0901      8.00      6.00       15.9949
    2  H               0.2791    0.0269    1.0099      1.00      1.00        1.0078
    3  H               0.8246    0.1711   -0.4177      1.00      1.00        1.0078
    4  O              -1.2637   -2.3214   -0.6486      8.00      6.00       15.9949
    5  H              -0.9024   -1.4351   -0.4145      1.00      1.00        1.0078
    6  H              -2.1460   -2.1184   -1.0076      1.00      1.00        1.0078


 FRAGMENTS
 =========                                     Atoms in this Fragment     Cart. coord.s (Angstrom)
                                               -------------------------------------------------------
    1  frag1                                             1  O           -0.0086    0.1789    0.0901
                                                         2  H            0.2791    0.0269    1.0099
                                                         3  H            0.8246    0.1711   -0.4177
    2  frag2                                             4  O           -1.2637   -2.3214   -0.6486
                                                         5  H           -0.9024   -1.4351   -0.4145
                                                         6  H           -2.1460   -2.1184   -1.0076


 Interatomic Distance Matrix (Angstrom)
 --------------------------------------

   1)     0.000
   2)     0.976   0.000
   3)     0.976   1.535   0.000
   4)     2.894   3.263   3.260   0.000
   5)     1.913   2.358   2.358   0.985   0.000
   6)     3.324   3.815   3.797   0.974   1.538   0.000

 Min. Distance =    0.9739
 Max. Distance =    3.8149



 =====================================
 S Y M M E T R Y ,   E L E C T R O N S
 =====================================
  
 Symmetry: NOSYM

 Irreducible Representations, including subspecies
 -------------------------------------------------
 A


 Configuration of Valence Electrons
 ==================================
 ( determined in the SCF procedure )

 Total:   16

 Net Charge: 0 (Nuclei minus Electrons)

 Aufbau principle for MO occupations will be applied through SCF cycle no.     150
 Thereafter, the program will assign electrons to MOs that are spatially
 similar to the occupied MOs in a "reference" cycle ("KeepOrbitals").
 The reference cycle is always the PREVIOUS cycle: it will evolve with
 the SCF procedure.
1
 ***************************************************************************************************



                                      ****************************************
                                      *  B U I L D : (Fragments, Functions)  *
                                      ****************************************
  

 The individual fragments are copies of the corresponding 'Master' fragments defined on the fragment files.
 However, they may have been rotated (and translated) with respect to the Master. The local coordinate axes
 of each fragment (which define for instance the spatial orientation in the current molecule of a fragment
 P:x orbital) are not necessarily those of the molecule.
 The local frame (if different from the molecular one) is printed to enable an interpretation of the expan-
 sion of an MO in Fragment Orbitals.



                                            ***************************
                                            *  Fragment Type : frag1  *
                                            ***************************
  

 Fragment no.    1   (in the list of all fragments)
 -----------------
 The local coordinate frame is identical to the molecular frame.

 Check Atomic Coordinates:

                  Master (on file)          After Computed Tranformation               As specified on Input
           ----------------------------     ----------------------------     ---------------------------------
     1)    -0.00865   0.17887   0.09011     -0.00865   0.17887   0.09011       1  -0.00865   0.17887   0.09011
     2)     0.27906   0.02688   1.00986      0.27906   0.02688   1.00986       2   0.27906   0.02688   1.00986
     3)     0.82457   0.17110  -0.41767      0.82457   0.17110  -0.41767       3   0.82457   0.17110  -0.41767



                                            ***************************
                                            *  Fragment Type : frag2  *
                                            ***************************
  

 Fragment no.    2   (in the list of all fragments)
 -----------------
 The local coordinate frame is identical to the molecular frame.

 Check Atomic Coordinates:

                  Master (on file)          After Computed Tranformation               As specified on Input
           ----------------------------     ----------------------------     ---------------------------------
     1)    -1.26371  -2.32144  -0.64860     -1.26371  -2.32144  -0.64860       4  -1.26371  -2.32144  -0.64860
     2)    -0.90235  -1.43510  -0.41452     -0.90235  -1.43510  -0.41452       5  -0.90235  -1.43510  -0.41452
     3)    -2.14596  -2.11838  -1.00763     -2.14596  -2.11838  -1.00763       6  -2.14596  -2.11838  -1.00763



 =======
 S F O s  ***  (Symmetrized Fragment Orbitals)  ***
 =======
  
 SFOs are linear combinations of (valence) Fragment Orbitals (FOs), such that the SFOs transform as the
 irreducible representations of the (molecular) symmetry group. Each SFO is therefore characterized by
 an irrep of the molecule and by a few (or only one) generating FOs.
 The SFOs constitute a symmetry-adapted basis for the Fock matrix. The MO eigenvector coefficients in
 this basis provide a direct interpretation of the MOs in terms of Frontier Orbital Theory.

 The SFOs are combined with auxiliary Core Functions (CFs) to ensure orthogonalization on the (frozen)
 Core Orbitals (COs). The Core-orthogonalized SFOs (CSFOs) constitute the true Fock basis.

 The FOs, and hence also the (C)SFOs are combinations of the elementary basis functions (BAS). The basis
 functions that participate in the description of the SFOs depend on the irrep. The indices of the
 involved functions are printed below for each irrep.
 (The complete list of primitive basis functions is printed in another section)

 Total nr. of (C)SFOs (summation over all irreps) :    92

 NOTE: a (C)SFO that is defined as a combination of more than one FO is usually NOT normalized.



                                       === A ===
 Nr. of SFOs :   92
 Cartesian basis functions that participate in this irrep (total number =   106) :
      1    54     2     3     4     5     8    11     6     9
     12     7    10    13    14    15    16    17    18    19
     20    21    22    23    24    25    26    27    28    29
     30    31    32    33    34    35    36    37    38    39
     40    41    42    43    44    45    46    47    48    49
     50    51    52    53    55    56    57    58    61    64
     59    62    65    60    63    66    67    68    69    70
     71    72    73    74    75    76    77    78    79    80
     81    82    83    84    85    86    87    88    89    90
     91    92    93    94    95    96    97    98    99   100
    101   102   103   104   105   106

    SFO  (index         Fragment          Generating    Expansion in Fragment Orbitals
  indx  incl.CFs)   Occup   Orb.Energy   FragmentType  Coeff.   Orbital     on Fragment
 --------------------------------------------------------------------------------------
     1       3      2.000      -0.930 au  frag1         1.00      1 A               1
                        (     -25.297 eV)
     2       4      2.000      -0.482 au  frag1         1.00      2 A               1
                        (     -13.120 eV)
     3       5      2.000      -0.347 au  frag1         1.00      3 A               1
                        (      -9.443 eV)
     4       6      2.000      -0.269 au  frag1         1.00      4 A               1
                        (      -7.333 eV)
     5       7       --        -0.024 au  frag1         1.00      5 A               1
                        (      -0.645 eV)
     6       8       --         0.047 au  frag1         1.00      6 A               1
                        (       1.291 eV)
     7       9       --         0.218 au  frag1         1.00      7 A               1
                        (       5.929 eV)
     8      10       --         0.229 au  frag1         1.00      8 A               1
                        (       6.232 eV)
     9      11       --         0.321 au  frag1         1.00      9 A               1
                        (       8.739 eV)
    10      12       --         0.365 au  frag1         1.00     10 A               1
                        (       9.922 eV)
    11      13       --         0.457 au  frag1         1.00     11 A               1
                        (      12.441 eV)
    12      14       --         0.504 au  frag1         1.00     12 A               1
                        (      13.710 eV)
    13      15       --         0.538 au  frag1         1.00     13 A               1
                        (      14.645 eV)
    14      16       --         0.660 au  frag1         1.00     14 A               1
                        (      17.948 eV)
    15      17       --         0.807 au  frag1         1.00     15 A               1
                        (      21.965 eV)
    16      18       --         1.030 au  frag1         1.00     16 A               1
                        (      28.019 eV)
    17      19       --         1.175 au  frag1         1.00     17 A               1
                        (      31.982 eV)
    18      20       --         1.197 au  frag1         1.00     18 A               1
                        (      32.568 eV)
    19      21       --         1.557 au  frag1         1.00     19 A               1
                        (      42.363 eV)
    20      22       --         1.573 au  frag1         1.00     20 A               1
                        (      42.811 eV)
    21      23       --         1.663 au  frag1         1.00     21 A               1
                        (      45.261 eV)
    22      24       --         1.787 au  frag1         1.00     22 A               1
                        (      48.628 eV)
    23      25       --         2.146 au  frag1         1.00     23 A               1
                        (      58.402 eV)
    24      26       --         2.404 au  frag1         1.00     24 A               1
                        (      65.405 eV)
    25      27       --         2.426 au  frag1         1.00     25 A               1
                        (      66.020 eV)
    26      28       --         2.506 au  frag1         1.00     26 A               1
                        (      68.203 eV)
    27      29       --         2.636 au  frag1         1.00     27 A               1
                        (      71.720 eV)
    28      30       --         3.038 au  frag1         1.00     28 A               1
                        (      82.663 eV)
    29      31       --         3.039 au  frag1         1.00     29 A               1
                        (      82.694 eV)
    30      32       --         3.290 au  frag1         1.00     30 A               1
                        (      89.534 eV)
    31      33       --         3.591 au  frag1         1.00     31 A               1
                        (      97.717 eV)
    32      34       --         3.691 au  frag1         1.00     32 A               1
                        (     100.425 eV)
    33      35       --         3.799 au  frag1         1.00     33 A               1
                        (     103.381 eV)
    34      36       --         3.811 au  frag1         1.00     34 A               1
                        (     103.708 eV)
    35      37       --         4.086 au  frag1         1.00     35 A               1
                        (     111.187 eV)
    36      38       --         4.250 au  frag1         1.00     36 A               1
                        (     115.637 eV)
    37      39       --         4.260 au  frag1         1.00     37 A               1
                        (     115.924 eV)
    38      40       --         4.629 au  frag1         1.00     38 A               1
                        (     125.951 eV)
    39      41       --         5.001 au  frag1         1.00     39 A               1
                        (     136.094 eV)
    40      42       --         5.124 au  frag1         1.00     40 A               1
                        (     139.430 eV)
    41      43       --         5.279 au  frag1         1.00     41 A               1
                        (     143.639 eV)
    42      44       --         5.663 au  frag1         1.00     42 A               1
                        (     154.103 eV)
    43      45       --         5.763 au  frag1         1.00     43 A               1
                        (     156.818 eV)
    44      46       --         6.212 au  frag1         1.00     44 A               1
                        (     169.044 eV)
    45      47       --         8.395 au  frag1         1.00     45 A               1
                        (     228.430 eV)
    46      48       --        35.235 au  frag1         1.00     46 A               1
                        (     958.805 eV)
    47      49      2.000      -0.928 au  frag2         1.00      1 A               2
                        (     -25.259 eV)
    48      50      2.000      -0.480 au  frag2         1.00      2 A               2
                        (     -13.069 eV)
    49      51      2.000      -0.347 au  frag2         1.00      3 A               2
                        (      -9.452 eV)
    50      52      2.000      -0.269 au  frag2         1.00      4 A               2
                        (      -7.325 eV)
    51      53       --        -0.024 au  frag2         1.00      5 A               2
                        (      -0.663 eV)
    52      54       --         0.047 au  frag2         1.00      6 A               2
                        (       1.272 eV)
    53      55       --         0.216 au  frag2         1.00      7 A               2
                        (       5.870 eV)
    54      56       --         0.228 au  frag2         1.00      8 A               2
                        (       6.192 eV)
    55      57       --         0.321 au  frag2         1.00      9 A               2
                        (       8.731 eV)
    56      58       --         0.364 au  frag2         1.00     10 A               2
                        (       9.912 eV)
    57      59       --         0.456 au  frag2         1.00     11 A               2
                        (      12.416 eV)
    58      60       --         0.504 au  frag2         1.00     12 A               2
                        (      13.709 eV)
    59      61       --         0.538 au  frag2         1.00     13 A               2
                        (      14.637 eV)
    60      62       --         0.658 au  frag2         1.00     14 A               2
                        (      17.904 eV)
    61      63       --         0.810 au  frag2         1.00     15 A               2
                        (      22.033 eV)
    62      64       --         1.028 au  frag2         1.00     16 A               2
                        (      27.960 eV)
    63      65       --         1.169 au  frag2         1.00     17 A               2
                        (      31.822 eV)
    64      66       --         1.195 au  frag2         1.00     18 A               2
                        (      32.507 eV)
    65      67       --         1.554 au  frag2         1.00     19 A               2
                        (      42.283 eV)
    66      68       --         1.571 au  frag2         1.00     20 A               2
                        (      42.749 eV)
    67      69       --         1.663 au  frag2         1.00     21 A               2
                        (      45.248 eV)
    68      70       --         1.780 au  frag2         1.00     22 A               2
                        (      48.430 eV)
    69      71       --         2.143 au  frag2         1.00     23 A               2
                        (      58.321 eV)
    70      72       --         2.404 au  frag2         1.00     24 A               2
                        (      65.428 eV)
    71      73       --         2.421 au  frag2         1.00     25 A               2
                        (      65.883 eV)
    72      74       --         2.507 au  frag2         1.00     26 A               2
                        (      68.230 eV)
    73      75       --         2.631 au  frag2         1.00     27 A               2
                        (      71.591 eV)
    74      76       --         3.031 au  frag2         1.00     28 A               2
                        (      82.484 eV)
    75      77       --         3.036 au  frag2         1.00     29 A               2
                        (      82.626 eV)
    76      78       --         3.283 au  frag2         1.00     30 A               2
                        (      89.336 eV)
    77      79       --         3.579 au  frag2         1.00     31 A               2
                        (      97.388 eV)
    78      80       --         3.682 au  frag2         1.00     32 A               2
                        (     100.189 eV)
    79      81       --         3.787 au  frag2         1.00     33 A               2
                        (     103.059 eV)
    80      82       --         3.813 au  frag2         1.00     34 A               2
                        (     103.755 eV)
    81      83       --         4.078 au  frag2         1.00     35 A               2
                        (     110.975 eV)
    82      84       --         4.249 au  frag2         1.00     36 A               2
                        (     115.634 eV)
    83      85       --         4.262 au  frag2         1.00     37 A               2
                        (     115.980 eV)
    84      86       --         4.615 au  frag2         1.00     38 A               2
                        (     125.587 eV)
    85      87       --         4.969 au  frag2         1.00     39 A               2
                        (     135.212 eV)
    86      88       --         5.126 au  frag2         1.00     40 A               2
                        (     139.477 eV)
    87      89       --         5.286 au  frag2         1.00     41 A               2
                        (     143.842 eV)
    88      90       --         5.644 au  frag2         1.00     42 A               2
                        (     153.572 eV)
    89      91       --         5.753 au  frag2         1.00     43 A               2
                        (     156.555 eV)
    90      92       --         6.200 au  frag2         1.00     44 A               2
                        (     168.718 eV)
    91      93       --         8.375 au  frag2         1.00     45 A               2
                        (     227.907 eV)
    92      94       --        35.219 au  frag2         1.00     46 A               2
                        (     958.354 eV)



 ================================
 (Slater-type)  F U N C T I O N S  ***  (Basis and Fit)  ***
 ================================
  

 Atom Type    1  (O)
 ==============

 Valence Basis Sets:   9
 -----------------------
   1 S    7.360000
   2 S    1.720000
   2 S    2.880000
   2 S    7.580000
   2 P    1.120000
   2 P    2.080000
   2 P    4.080000
   3 D    2.000000
   4 F    3.000000

 Frozen Core Shells
 ------------------
    S:  1

 Atom Type    2  (H)
 ==============

 Valence Basis Sets:   5
 -----------------------
   1 S    0.690000
   1 S    0.920000
   1 S    1.580000
   2 P    1.250000
   3 D    2.500000

 Atom Type    3  (O)
 ==============

 Valence Basis Sets:   9
 -----------------------
   1 S    7.360000
   2 S    1.720000
   2 S    2.880000
   2 S    7.580000
   2 P    1.120000
   2 P    2.080000
   2 P    4.080000
   3 D    2.000000
   4 F    3.000000

 Frozen Core Shells
 ------------------
    S:  1

 Atom Type    4  (H)
 ==============

 Valence Basis Sets:   5
 -----------------------
   1 S    0.690000
   1 S    0.920000
   1 S    1.580000
   2 P    1.250000
   3 D    2.500000


 BAS: List of all Elementary Cartesian Basis Functions
 =====================================================

 The numbering in the list below (to the right of the function characteristics) is referred
 to in print-outs of MO eigenvectors and Mulliken populations in the BAS representation
 (as contrasted to the SFO representation).

 Notes:
 1. The functions are characterized by a polynomial prefactor (powers of x,y,z and r) and
    an exponential decay factor alpha.
 2. Since the basis sets are specific for an atom TYPE, the individual functions occur on
    all atoms of that type.
 3. The word 'Core' in the left margin signals that it is a Core Function (CF) : not a
    degree of freedom in the valence set, but only used to ensure orthogonalization of
    the other valence basis functions on the frozen Core Orbitals.


 (power of) X  Y  Z  R     Alpha  on Atom
            ==========     =====     ==========

 O                                    1
                                  ---------------------------------------------------------------------------
    Core    0  0  0  0     7.360      1
            0  0  0  1     1.720      2
            0  0  0  1     2.880      3
            0  0  0  1     7.580      4
            1  0  0  0     1.120      5
            0  1  0  0     1.120      6
            0  0  1  0     1.120      7
            1  0  0  0     2.080      8
            0  1  0  0     2.080      9
            0  0  1  0     2.080     10
            1  0  0  0     4.080     11
            0  1  0  0     4.080     12
            0  0  1  0     4.080     13
            2  0  0  0     2.000     14
            1  1  0  0     2.000     15
            1  0  1  0     2.000     16
            0  2  0  0     2.000     17
            0  1  1  0     2.000     18
            0  0  2  0     2.000     19
            3  0  0  0     3.000     20
            2  1  0  0     3.000     21
            2  0  1  0     3.000     22
            1  2  0  0     3.000     23
            1  1  1  0     3.000     24
            1  0  2  0     3.000     25
            0  3  0  0     3.000     26
            0  2  1  0     3.000     27
            0  1  2  0     3.000     28
            0  0  3  0     3.000     29

 H                                    2    3
                                  ---------------------------------------------------------------------------
            0  0  0  0     0.690     30   42
            0  0  0  0     0.920     31   43
            0  0  0  0     1.580     32   44
            1  0  0  0     1.250     33   45
            0  1  0  0     1.250     34   46
            0  0  1  0     1.250     35   47
            2  0  0  0     2.500     36   48
            1  1  0  0     2.500     37   49
            1  0  1  0     2.500     38   50
            0  2  0  0     2.500     39   51
            0  1  1  0     2.500     40   52
            0  0  2  0     2.500     41   53

 O                                    4
                                  ---------------------------------------------------------------------------
    Core    0  0  0  0     7.360     54
            0  0  0  1     1.720     55
            0  0  0  1     2.880     56
            0  0  0  1     7.580     57
            1  0  0  0     1.120     58
            0  1  0  0     1.120     59
            0  0  1  0     1.120     60
            1  0  0  0     2.080     61
            0  1  0  0     2.080     62
            0  0  1  0     2.080     63
            1  0  0  0     4.080     64
            0  1  0  0     4.080     65
            0  0  1  0     4.080     66
            2  0  0  0     2.000     67
            1  1  0  0     2.000     68
            1  0  1  0     2.000     69
            0  2  0  0     2.000     70
            0  1  1  0     2.000     71
            0  0  2  0     2.000     72
            3  0  0  0     3.000     73
            2  1  0  0     3.000     74
            2  0  1  0     3.000     75
            1  2  0  0     3.000     76
            1  1  1  0     3.000     77
            1  0  2  0     3.000     78
            0  3  0  0     3.000     79
            0  2  1  0     3.000     80
            0  1  2  0     3.000     81
            0  0  3  0     3.000     82

 H                                    5    6
                                  ---------------------------------------------------------------------------
            0  0  0  0     0.690     83   95
            0  0  0  0     0.920     84   96
            0  0  0  0     1.580     85   97
            1  0  0  0     1.250     86   98
            0  1  0  0     1.250     87   99
            0  0  1  0     1.250     88  100
            2  0  0  0     2.500     89  101
            1  1  0  0     2.500     90  102
            1  0  1  0     2.500     91  103
            0  2  0  0     2.500     92  104
            0  1  1  0     2.500     93  105
            0  0  2  0     2.500     94  106

 Total number of charge fitting functions (nprimf)       364
 Total number of Cartesian basis functions (naos)        106
 Total number of Cartesian core functions  (ncos)          2

1
 ***************************************************************************************************



                                              ***********************
                                              *  T E C H N I C A L  *
                                              ***********************
  



 =============================================================
 P A R A L L E L I Z A T I O N  and  V E C T O R I Z A T I O N
 =============================================================
  
 Nr of parallel processes:                                4
 Maximum vector length in NumInt loops:                 128

 IO buffersize (Mb):                                     64.000000



 =====================
 S C F   U P D A T E S
 =====================
  
 Max. nr. of cycles:                               300
 Convergence criterion:                              0.0000010000
   secondary criterion:                              0.0010000000

 Mix parameter (when DIIS does not apply):           0.2000000000
 Mixed ADIIS+DIIS will be used
    Max number of expansion vectors:                10
    Pure ADIIS when Max([F,P]) is above              0.1000000000
    Pure DIIS when Max([F,P]) is below               0.0010000000
 Automatic ElectronSmearing (in case of problematic SCF convergence) disabled



 =================
 P R E C I S I O N  ***  (General: NumInt, NeglectFunctionTails, ...)  ***
 =================
  

 NumInt:           Target precision:                 4.0000000000
 -------           Initial precision:                4.0000000000
                   Min. precision (optimization):    4.0000000000

 Neglect Functions:          Basis functions:        0.1000000000E-05
 ------------------          Fit functions:          0.1000000000E-05



 ===========================
 L I N E A R   S C A L I N G
 ===========================
  

 Cut-off radii density fit:                        0.1000000000E-07
 Overlap cut-off criterion AO matrix elements:     0.1000000000E-05
 Cut-offs for Coulomb potential and fitted density:0.1000000000E-07
 Cut-off criterion for Coulomb multipole terms:    0.1000000000E-07
 Progressive Convergence parameter:                 0.000000000    
1
 ***************************************************************************************************



                                            ***************************
                                            *  C O M P U T A T I O N  *
                                            ***************************
  

 Number of elements of the density matrix on this node (used, total):      1641      5671



 ===========================================
 Numerical Integration : Fuzzy Cells (Becke)
 ===========================================
  
 Becke grid quality: NORMAL         
  
 Lebedev angular grid order:             min:  11 max:  23
 Nr. of radial points:                   min:  46 max:  49

 Total nr. of points:      37062
 Nr. of blocks:              290
 Block length:               128
 Nr. of dummy points:         58


 Test of Precision of the Numerical Integration Grid
 ===================================================

 Integral of the Total Core Density:                   3.99999634135586
 Relative Error:                                      -9.147E-07



 ========================
 Density Fitting (zlmFit)
 ========================
  
 ZlmFit Fit Quality: NORMAL         
  
 Max L-expansion:                        min:   6 max:   7
 Nr. of radial interpolation points:     min:  39 max:  48



 =====
 S C F  ***  ScaSCF  ***
 =====
  
 Initial density matrix is calculated as sum of fragments

 CYCLE    1
 SCF Error: norm([F,P])=      0.143538840859, max([F,P])=      0.053207406285
 orbitals (Q,E):
 ---------------
 A :1...18           ( 2.00    -0.9553)  ( 2.00    -0.9097)  ( 2.00    -0.5045)  ( 2.00    -0.4647)
                     ( 2.00    -0.3773)  ( 2.00    -0.3320)  ( 2.00    -0.2941)  ( 2.00    -0.2539)
                     ( 0.00    -0.0362)  ( 0.00     0.0127)  ( 0.00     0.0396)  ( 0.00     0.1230)
                     ( 0.00     0.2089)  ( 0.00     0.2103)  ( 0.00     0.2305)  ( 0.00     0.2462)
                     ( 0.00     0.2925)  ( 0.00     0.3754)

 CYCLE    2
   MIX coefficients:  0.8000  0.2000
 SCF Error: norm([F,P])=      0.048754981004, max([F,P])=      0.018334641266
 orbitals (Q,E):
 ---------------
 A :1...9            ( 2.00    -0.9562)  ( 2.00    -0.9049)  ( 2.00    -0.5056)  ( 2.00    -0.4608)
                     ( 2.00    -0.3773)  ( 2.00    -0.3281)  ( 2.00    -0.2939)  ( 2.00    -0.2492)
                     ( 0.00    -0.0367)

 CYCLE    3
  SDIIS (wt  0.000): -0.6830  1.6830
 A-DIIS (wt  1.000):  0.0000  1.0000
  DIIS coefficients:  0.0000  1.0000
 SCF Error: norm([F,P])=      0.022164119693, max([F,P])=      0.007308702999
 orbitals (Q,E):
 ---------------
 A :1...9            ( 2.00    -0.9609)  ( 2.00    -0.8932)  ( 2.00    -0.5107)  ( 2.00    -0.4511)
                     ( 2.00    -0.3792)  ( 2.00    -0.3200)  ( 2.00    -0.2938)  ( 2.00    -0.2378)
                     ( 0.00    -0.0393)

 CYCLE    4
  SDIIS (wt  0.000):  1.5880 -1.6999  1.1119
 A-DIIS (wt  1.000):  0.0000  0.6634  0.3366
  DIIS coefficients:  0.0000  0.6634  0.3366
 SCF Error: norm([F,P])=      0.038438338845, max([F,P])=      0.014968679981
 orbitals (Q,E):
 ---------------
 A :1...9            ( 2.00    -0.9614)  ( 2.00    -0.8983)  ( 2.00    -0.5110)  ( 2.00    -0.4550)
                     ( 2.00    -0.3804)  ( 2.00    -0.3238)  ( 2.00    -0.2959)  ( 2.00    -0.2429)
                     ( 0.00    -0.0392)

 CYCLE    5
  SDIIS (wt  1.000): -1.3380  1.8209 -0.7405  1.2576
  DIIS coefficients: -1.3380  1.8209 -0.7405  1.2576
 SCF Error: norm([F,P])=      0.003684905559, max([F,P])=      0.000862783585
 orbitals (Q,E):
 ---------------
 A :1...9            ( 2.00    -0.9605)  ( 2.00    -0.8986)  ( 2.00    -0.5102)  ( 2.00    -0.4553)
                     ( 2.00    -0.3800)  ( 2.00    -0.3238)  ( 2.00    -0.2955)  ( 2.00    -0.2431)
                     ( 0.00    -0.0388)

 CYCLE    6
  SDIIS (wt  1.000): -0.0485  0.0945 -0.0246  0.2053  0.7733
  DIIS coefficients: -0.0485  0.0945 -0.0246  0.2053  0.7733
 SCF Error: norm([F,P])=      0.000770229876, max([F,P])=      0.000297825347
 orbitals (Q,E):
 ---------------
 A :1...9            ( 2.00    -0.9605)  ( 2.00    -0.8987)  ( 2.00    -0.5102)  ( 2.00    -0.4554)
                     ( 2.00    -0.3799)  ( 2.00    -0.3239)  ( 2.00    -0.2955)  ( 2.00    -0.2433)
                     ( 0.00    -0.0388)

 CYCLE    7
  SDIIS (wt  1.000): -0.0542  0.0760 -0.0320  0.0748  0.2259  0.7095
  DIIS coefficients: -0.0542  0.0760 -0.0320  0.0748  0.2259  0.7095
 SCF Error: norm([F,P])=      0.000063622550, max([F,P])=      0.000019308189
 orbitals (Q,E):
 ---------------
 A :1...9            ( 2.00    -0.9606)  ( 2.00    -0.8987)  ( 2.00    -0.5102)  ( 2.00    -0.4554)
                     ( 2.00    -0.3800)  ( 2.00    -0.3239)  ( 2.00    -0.2955)  ( 2.00    -0.2433)
                     ( 0.00    -0.0388)

 CYCLE    8
  SDIIS (wt  1.000): -0.0046  0.0066 -0.0027  0.0078  0.0357  0.4289  0.5283
  DIIS coefficients: -0.0046  0.0066 -0.0027  0.0078  0.0357  0.4289  0.5283
 SCF Error: norm([F,P])=      0.000044388796, max([F,P])=      0.000016057381
 orbitals (Q,E):
 ---------------
 A :1...9            ( 2.00    -0.9605)  ( 2.00    -0.8987)  ( 2.00    -0.5102)  ( 2.00    -0.4554)
                     ( 2.00    -0.3800)  ( 2.00    -0.3239)  ( 2.00    -0.2955)  ( 2.00    -0.2433)
                     ( 0.00    -0.0388)

 CYCLE    9
  SDIIS (wt  1.000): -0.0010  0.0012 -0.0006  0.0001  0.0016  0.1060  0.1833  0.7094
  DIIS coefficients: -0.0010  0.0012 -0.0006  0.0001  0.0016  0.1060  0.1833  0.7094
 SCF Error: norm([F,P])=      0.000005048684, max([F,P])=      0.000001270511
 orbitals (Q,E):
 ---------------
 A :1...9            ( 2.00    -0.9605)  ( 2.00    -0.8987)  ( 2.00    -0.5102)  ( 2.00    -0.4554)
                     ( 2.00    -0.3800)  ( 2.00    -0.3239)  ( 2.00    -0.2955)  ( 2.00    -0.2433)
                     ( 0.00    -0.0388)

 CYCLE   10
  SDIIS (wt  1.000):  0.0001 -0.0001  0.0000 -0.0002 -0.0004  0.0178  0.0371  0.1873  0.7584
  DIIS coefficients:  0.0001 -0.0001  0.0000 -0.0002 -0.0004  0.0178  0.0371  0.1873  0.7584
 SCF Error: norm([F,P])=      0.000000491250, max([F,P])=      0.000000157242
 orbitals (Q,E):
 ---------------
 A :1...9            ( 2.00    -0.9605)  ( 2.00    -0.8987)  ( 2.00    -0.5102)  ( 2.00    -0.4554)
                     ( 2.00    -0.3800)  ( 2.00    -0.3239)  ( 2.00    -0.2955)  ( 2.00    -0.2433)
                     ( 0.00    -0.0388)

 SCF CONVERGED

 CYCLE   11
1
 ***************************************************************************************************



                                                *******************
                                                *  R E S U L T S  *
                                                *******************
  
 *** Setting up for NEW gradients in Focky
 *** Using FIT density in Focky

 Orbital Energies, per Irrep and Spin:
 ======================================
                        Occup              E (au)              E (eV)       Diff (eV) with prev. cycle
                        -----      --------------------        ------       --------------------------
 A
               1        2.000     -0.96054580801138E+00       -26.138               5.61E-08
               2        2.000     -0.89869114765910E+00       -24.455               7.69E-08
               3        2.000     -0.51016638372322E+00       -13.882               1.04E-07
               4        2.000     -0.45540253478386E+00       -12.392               8.02E-08
               5        2.000     -0.37995192562922E+00       -10.339               2.18E-07
               6        2.000     -0.32393842238834E+00        -8.815               1.07E-07
               7        2.000     -0.29549342924834E+00        -8.041               1.04E-07
               8        2.000     -0.24327616977314E+00        -6.620               8.35E-08
               9        0.000     -0.38809903658029E-01        -1.056
              10        0.000      0.16221493123723E-01         0.441
              11        0.000      0.36538093187770E-01         0.994
              12        0.000      0.12521268134474E+00         3.407
              13        0.000      0.20478647995723E+00         5.573
              14        0.000      0.20599117436978E+00         5.605
              15        0.000      0.23615884784968E+00         6.426
              16        0.000      0.24890173238891E+00         6.773
              17        0.000      0.29463342904600E+00         8.017
              18        0.000      0.37683360471747E+00        10.254
  
 HOMO :        8 A                -0.24327616977314E+00
 LUMO :        9 A                -0.38809903658029E-01
  


 Orbital Energies of the Core Orbitals:
 ======================================
 (Note that the atoms are grouped by atomtype, see the labels, and may hence NOT be in input order)

 AtomType  Orbital  Atom                   E (au)                        E (eV)
 --------  -------  ----           --------------------        ----------------
 O           1S        1          -0.18820641645373E+02                -512.136
 O           1S        4          -0.18759427158896E+02                -510.470


 Fit test: (difference of exact and fit density, squared integrated, result summed over spins)
         Sum-of-Fragments:                             0.00005407604759
         Orthogonalized Fragments:                     0.00005482332973
         SCF:                                          0.00005502855991



 ==========================
 Electron Density at Nuclei
 ==========================
  
 The electron density is calculated at points on a small sphere around the center of a nucleus.
 The printed electron density is the average electron density on these points.
 The radius of the sphere is the printed approximate finite nuclear radius.

         Atom        Nuclear Radius (Angstrom)             Electron Density (a.u.)
         ----        -------------------------             -----------------------
     1)   O                 0.0000345546                              306.87738
     2)   H                 0.0000181514                                0.47032
     3)   H                 0.0000181514                                0.47011
     4)   O                 0.0000345546                              306.85691
     5)   H                 0.0000181514                                0.45358
     6)   H                 0.0000181514                                0.47625



 =======================================
 M U L L I K E N   P O P U L A T I O N S
 =======================================
  
 The survey below gives for each atom:
 a) the total charge (Z minus electrons)
 b) the net spin polarization (nr of electrons spin-A minus spin-B)
 c) for each spin the atomic electron valence density (integrated) per L-value.

 Atom              Charge    Spin density          S         P         D         F
 ----              ------    ------------       ------    ------    ------    ------
 1 O              -0.5916                       1.8639    4.6891    0.0350    0.0035
 2 H               0.3099                       0.5824    0.0972    0.0105    0.0000
 3 H               0.3098                       0.5826    0.0971    0.0105    0.0000
 4 O              -0.6067                       1.8315    4.7384    0.0333    0.0035
 5 H               0.3210                       0.5327    0.1357    0.0107    0.0000
 6 H               0.2576                       0.6207    0.1116    0.0101    0.0000

 Populations of individual BAS functions
 ----------------------------------------
 1 O            0.0004  0.9476  0.9320 -0.0161  0.3993  0.5215  0.1786  0.8871  1.0040  0.8646
                0.2676  0.3256  0.2409  0.0118  0.0034  0.0117 -0.0208  0.0017  0.0272  0.0045
                0.0034  0.0017 -0.0086  0.0001  0.0054 -0.0088 -0.0077  0.0058  0.0078
 2 H           -0.0175  0.2053  0.3947  0.0392  0.0519  0.0061 -0.0033  0.0004  0.0037 -0.0051
                0.0038  0.0110
 3 H           -0.0180  0.2065  0.3942  0.0307  0.0520  0.0144  0.0099  0.0030  0.0018 -0.0057
                0.0012  0.0002
 4 O            0.0004  0.9098  0.9377 -0.0165  0.2737  0.4146  0.5125  0.8689  0.8715  0.9534
                0.2547  0.2735  0.3156  0.0187  0.0068  0.0050  0.0135  0.0039 -0.0147  0.0070
                0.0009  0.0056 -0.0004  0.0004 -0.0055  0.0064  0.0034 -0.0067 -0.0077
 5 H           -0.2428  0.4118  0.3636  0.0323  0.0546  0.0488 -0.0023  0.0025  0.0006  0.0111
                0.0029 -0.0041
 6 H            0.0258  0.1978  0.3971  0.0226  0.0404  0.0486  0.0107  0.0032  0.0027 -0.0043
                0.0006 -0.0027

 Gross Charges per Atom (Z minus electrons)
 ==========================================
            -0.5916    0.3099    0.3098   -0.6067    0.3210    0.2576
 Net Total:  0.00000000


 Atom-Atom Population Matrix (off-diagonal elements not doubled)
 ===============================================================

     1 :     5.8620
     2 :     0.3532    0.3991
     3 :     0.3532   -0.0652    0.3992
     4 :    -0.0156    0.0018    0.0018    5.8791
     5 :     0.0351    0.0004    0.0005    0.3557    0.3497
     6 :     0.0038    0.0007    0.0007    0.3839   -0.0624    0.4157


 Frag-Frag Population Matrix (off-diagonal elements not doubled)
 ===============================================================

     1 :     7.9426
     2 :     0.0293    7.9989



 =================================================
 H I R S H F E L D   C H A R G E   A N A L Y S I S
 =================================================
  
 For each fragment: the (numerical) integral of rho(scf) * rho(fragment)/rho(sum-of-fragments)
 (nuclear charges are included, electrons are counted negative)

 The fragments and their ordering are defined in the early G E O M E T R Y output section.
 If you use single-atom fragments, this usually implies that all atoms of the same
 chemical type are grouped together. This may not be the order in which you listed them
 in the input file!

    1  frag1                     0.0285
    2  frag2                    -0.0285

 Sum of these charges (accuracy NumInt/Tails) =           0.00001971



 =============================
 V O R O N O I   C H A R G E S
 =============================
  
 For each atom: the (numerical) integral of the total electronic charge density in its Voronoi cell,
 i.e. the region of space that is closer to that atom than to any other atom.
 (cf. Wigner-Seitz cells in crystals)

 Within the Voronoi cell the subintegrals over the atomic sphere and the remaining part are evaluated
 separately to give the numbers of electrons (negative charge) in these regions.
 The net total charge in the cell (including the nuclear charge) is also given.

 Values are provided for
    a) the Initial (sum-of-fragments) density
    b) the Orthogonalized-Fragments density
    c) the SCF density
    d) the Voronoi Deformation Density (VDD): the difference SCF-Initial for the complete atomic cell


  Atom                Initial                    OrthFrag                   SCF
             Sphere RestCell NetTotal   Sphere RestCell NetTotal   Sphere RestCell NetTotal      VDD
 -----       ------------------------   ------------------------   ------------------------    -----
    1 O      -2.848   -4.323    0.829   -2.852   -4.328    0.820   -2.849   -4.326    0.825   -0.004
    2 H      -0.103   -1.238   -0.341   -0.103   -1.238   -0.341   -0.103   -1.221   -0.324    0.017
    3 H      -0.103   -1.262   -0.366   -0.103   -1.262   -0.366   -0.103   -1.245   -0.348    0.018
    4 O      -2.848   -4.463    0.689   -2.850   -4.472    0.678   -2.849   -4.490    0.660   -0.029
    5 H      -0.102   -1.364   -0.466   -0.102   -1.343   -0.444   -0.099   -1.355   -0.455    0.011
    6 H      -0.104   -1.242   -0.346   -0.104   -1.243   -0.347   -0.104   -1.255   -0.359   -0.013
 ---------------------------------------------------------------------------------------------------
 Total NetCharge:               0.000                      0.000                      0.000    0.000
 (accuracy NumInt/Tails)

 Remark: the 'NetTotal' Voronoi charges often do not match the Mulliken and/or Hirshfeld charges very
 well. This is caused by the fact that chemically different atoms are not treated in accordance with
 their relative sizes. (Voronoi cells are defined by boundary planes halfway between the atoms.)
 However, the CHANGES in charge, comparing 'Initial' to 'SCF' for instance, do give a fair indication
 of the flow of charge caused by the relaxation from sum-of-fragments to self-consistency.

 Warning: the absolute accuracy of the VDD charges obtained using the Fuzzy Cells (Becke) integration
 scheme is much poorer than the one obtained with an 'equivalent' Voronoi integration grid. 



 =================================================================
 M U L T I P O L E   D E R I V E D   C H A R G E   A N A L Y S I S
 =================================================================

 This charge analysis uses the atomic multipoles (obtained from the fitted density) up to some level X,
 and reconstructs these multipoles exactly (up to level X) by distributing charges over all atoms.
 This is achieved by using Lagrange multipliers and a weight function to keep the multipoles local.

 Dummy atoms can be included (by setting INCDUM in MDC-block to 1) to obtain a fractional charge.
 This is generally useful and necessary only for small symmetrical molecules, when there are not
 enough degrees of freedom to reconstruct the multipoles.

 Since the atomic multipoles are reconstructed up to level X,
 the molecular multipoles are represented also up to level X.
 The recommended level is to reconstruct up to quadrupole : -> MDC-q charges.

 See: M. Swart, P.Th. van Duijnen, J.G. Snijders, J.Comput.Chem., (2001), p. 79-88.

 ------------------------------------------------------------- 
 Atomic electronic multipole moments from SCF equations (a.u.)
 ------------------------------------------------------------- 

   atom        charge        dip-x     dip-y     dip-z      quad-xx   quad-xy   quad-xz   quad-yy   quad-yz   quad-zz
 --------------------------------------------------------------------------------------------------------------------
    1 O     -0.132605     0.348286 -0.141406  0.119222     0.125935  0.064501 -0.132046 -0.709705 -0.068922  0.583771
    2 H      0.109030     0.008312 -0.016324  0.094118    -0.035312 -0.003386  0.023524 -0.128990 -0.023769  0.164302
    3 H      0.109087     0.069521 -0.000024 -0.065920     0.090299  0.003893 -0.070352 -0.132338 -0.009975  0.042039
    4 O     -0.228192    -0.200090  0.395840 -0.049610     0.443350  0.142088  0.408394  0.220448  0.130437 -0.663798
    5 H      0.059903     0.017300  0.032899  0.010926    -0.004126  0.037893  0.035293  0.091499  0.028410 -0.087373
    6 H      0.082777    -0.080589  0.002408 -0.034177     0.136435 -0.010265  0.082520 -0.033176  0.002974 -0.103259

 --------------------------------------- 
 Multipole derived atomic charges (a.u.)
 --------------------------------------- 

 The MDC-m charges are just the Monopole terms in the multipole expansion, while for the MDC-d charges
 also the Dipoles are reconstructed. The usually preferred charges are the MDC-q charges.
 These reconstruct the Monopoles, Dipoles and Quadrupoles (both atomic AND molecular).

        Atom    Level:     MDC-m        MDC-d        MDC-q
 ---------------------------------------------------------
     1     O           -0.132605    -0.606788    -0.563488
     2     H            0.109030     0.335181     0.304826
     3     H            0.109087     0.333946     0.305441
     4     O           -0.228192    -0.661735    -0.623374
     5     H            0.059903     0.273568     0.290489
     6     H            0.082777     0.325828     0.286106

 ------------------------------------------------ 
 Average absolute deviations in atomic multipoles
 ------------------------------------------------ 

 Stated here are the average differences between the atomic multipoles
 and the reconstructed atomic multipoles (from the distributed charges).
 If these values are not zero, this means there are not enough degrees of freedom,
 to be able to reconstruct the atomic multipoles. (This usually happens only
 for small and/or highly symmetric molecules). If this is the case, one could add
 dummy atoms as extra point charges (and setting INCDUM in MDC-block to 1).

 Level:                                 MDC-d        MDC-q
 ---------------------------------------------------------
 Charge   (a.u.)                       0.0000       0.0000
 Dipole   (Debye)                      0.0000       0.0930
 Quad.    (a.u.)                       0.1111       0.0302

 --------------------------------------- 
 Represented molecular multipole moments
 --------------------------------------- 

 Given here are the Molecular multipole moments from the atomic charges, and from the Fit Density.
 Note that the atomic charges represent the latter, NOT the ones from the Exact density.

            Q (a.u.)             Dipole moment (Debye)                                          Quadrupole moment (a.u.)
                                 x         y         z              xx        xy        xz        yy        yz        zz
------------------------------------------------------------------------------------------------------------------------
MDC-m        -0.0000        0.8559    1.2790    0.4436          1.6156   -1.0667    0.0408   -3.1201   -0.7404    1.5046
MDC-d        -0.0000        1.2696    1.9739    0.6331          5.1683   -0.2960    1.3092   -8.0601   -0.8714    2.8918
MDC-q        -0.0000        1.2174    1.8436    0.6009          4.6929   -0.5662    1.0581   -7.4991   -0.9520    2.8062
 
Fit.Dens.    -0.0000        1.2696    1.9739    0.6331          5.6512   -0.4171    1.2714   -8.8318   -1.0145    3.1806



 =============
 Dipole Moment  ***  (Debye)  ***
 =============
  
 Vector   :         1.27003700      1.97459240      0.63307224
 Magnitude:         2.43162283

 This molecular dipole moment is calculated with analytic integration



 =========================================
 Quadrupole Moment (Buckingham convention)  ***  (a.u.)  ***
 =========================================
  
      quad-xx        quad-xy        quad-xz        quad-yy        quad-yz        quad-zz
      5.65488467    -0.29897822     1.44633927    -8.83690871    -0.98509001     3.18202404

 This molecular quadrupole moment is calculated with analytic integration
1



                                             *************************
                                             *  SFO MO coefficients  *
                                             *************************
  


                                       === A ===
 MOs expanded in CFs+SFOs
 ========================

 The SFOs have been characterized in an earlier part of output.
 To deduce the bonding / antibonding nature of SFO combinations in an MO, consider the products
 of the coefficients AND THE OVERLAP between the SFOs (may be NEGATIVE). The SFO overlap matrix
 is printed later, in the SFO Populations section.

 (The CF coefficients are not printed)

 MOs :      1        2        3        4        5        6        7        8        9       10
 occup:   2.00     2.00     2.00     2.00     2.00     2.00     2.00     2.00     0.00     0.00
 CF+SFO
     3   0.9973   0.0708   0.0000  -0.0418  -0.0079   0.0145  -0.0008   0.0005   0.0028   0.1193
     4  -0.0000   0.0000  -0.9995   0.0006  -0.0003   0.0007   0.0002   0.0238   0.0001   0.0008
     5  -0.0069   0.0104   0.0000  -0.1504  -0.9591  -0.2151  -0.0265   0.0008  -0.0198  -0.0834
     6   0.0086  -0.0147   0.0001   0.1211   0.0405  -0.4376   0.8780   0.0044   0.0128   0.1064
     7   0.0014  -0.0102   0.0000   0.0116   0.0085  -0.0201  -0.0112  -0.0003  -0.9590   0.4774
     8   0.0000  -0.0001  -0.0069  -0.0000   0.0000  -0.0001  -0.0000   0.0031  -0.0002   0.0052
     9  -0.0020   0.0010   0.0000  -0.0013   0.0014   0.0042  -0.0008   0.0000  -0.0253   0.0019
    10   0.0000  -0.0001   0.0031  -0.0000  -0.0000  -0.0001   0.0000   0.0031   0.0001   0.0002
    11   0.0008  -0.0071   0.0000   0.0029  -0.0065  -0.0065  -0.0056   0.0000  -0.0137   0.0033
    12   0.0009  -0.0074   0.0000  -0.0007  -0.0041  -0.0010  -0.0109  -0.0001  -0.0100  -0.0015
    13   0.0002  -0.0039   0.0000   0.0032   0.0010  -0.0032  -0.0025   0.0001  -0.0098   0.0121
    14  -0.0000  -0.0000  -0.0011  -0.0000  -0.0000  -0.0000   0.0000   0.0004   0.0000   0.0001
    15  -0.0000   0.0000  -0.0016   0.0000   0.0000  -0.0000  -0.0000  -0.0035   0.0001  -0.0001
    16  -0.0014   0.0042   0.0000  -0.0048  -0.0012   0.0045   0.0019  -0.0001   0.0066  -0.0060
    17   0.0010  -0.0042   0.0000   0.0035  -0.0015  -0.0050  -0.0001  -0.0000  -0.0056   0.0078
    18   0.0000  -0.0000   0.0005  -0.0000  -0.0000  -0.0000  -0.0000  -0.0003  -0.0000  -0.0001
    19  -0.0000   0.0000  -0.0001  -0.0000  -0.0000   0.0000   0.0000   0.0001   0.0000   0.0000
    20   0.0006  -0.0012   0.0000   0.0025   0.0006  -0.0019   0.0008  -0.0000   0.0006   0.0023
    21   0.0004  -0.0005   0.0000   0.0019   0.0021  -0.0012  -0.0001   0.0000   0.0002  -0.0035
    22   0.0000   0.0000   0.0015  -0.0000  -0.0000   0.0000   0.0000   0.0007   0.0000   0.0000
    23   0.0006  -0.0006   0.0000   0.0020  -0.0002  -0.0009   0.0007  -0.0000  -0.0005  -0.0049
    24   0.0001  -0.0002   0.0000   0.0002   0.0006  -0.0002  -0.0003   0.0000  -0.0002  -0.0011
    25  -0.0000  -0.0000  -0.0001   0.0000  -0.0000   0.0000  -0.0000   0.0001   0.0000   0.0000
    26  -0.0004   0.0010  -0.0000  -0.0004  -0.0003   0.0005  -0.0001  -0.0000  -0.0003  -0.0064
    27   0.0001  -0.0002  -0.0000   0.0006   0.0009  -0.0002   0.0000   0.0000  -0.0001  -0.0000
    28  -0.0000   0.0000   0.0002   0.0000   0.0000   0.0000   0.0000   0.0002  -0.0000   0.0000
    29   0.0003  -0.0001  -0.0000   0.0008   0.0001  -0.0006   0.0005   0.0000  -0.0004  -0.0015
    30   0.0000   0.0000   0.0001   0.0000  -0.0000   0.0000   0.0000  -0.0001   0.0000  -0.0000
    31  -0.0000  -0.0000  -0.0003  -0.0000   0.0000  -0.0000  -0.0000  -0.0002   0.0000  -0.0000
    32   0.0001  -0.0002   0.0000   0.0001   0.0004   0.0000  -0.0000   0.0000   0.0002   0.0006
    33  -0.0000  -0.0000   0.0002  -0.0000   0.0000   0.0000  -0.0000   0.0000  -0.0000   0.0000
    34  -0.0000   0.0000  -0.0002  -0.0000  -0.0000   0.0000  -0.0000  -0.0001   0.0000  -0.0000
    35   0.0001  -0.0002  -0.0000   0.0004   0.0004  -0.0002   0.0001  -0.0000  -0.0001   0.0000
    36   0.0004  -0.0003   0.0000   0.0006   0.0002  -0.0006   0.0006   0.0000   0.0003   0.0004
    37  -0.0000   0.0001  -0.0000  -0.0003  -0.0002   0.0002  -0.0001  -0.0000  -0.0001  -0.0004
    38   0.0001  -0.0004   0.0000  -0.0001   0.0001  -0.0001  -0.0002   0.0000  -0.0004   0.0006
    39  -0.0000   0.0000   0.0003   0.0000   0.0000   0.0000   0.0000   0.0000   0.0000  -0.0000
    40   0.0000  -0.0001   0.0000   0.0001   0.0002  -0.0000   0.0000   0.0000   0.0000   0.0001
    41  -0.0000   0.0000  -0.0001  -0.0000   0.0000  -0.0000  -0.0000  -0.0002  -0.0000  -0.0000
    42   0.0000  -0.0001  -0.0000  -0.0001   0.0000   0.0000  -0.0000   0.0000  -0.0000   0.0011
    43  -0.0000   0.0000   0.0000   0.0000  -0.0000   0.0000   0.0000  -0.0000   0.0000   0.0000
    44   0.0000  -0.0001   0.0000   0.0000   0.0000  -0.0001  -0.0000   0.0000   0.0001   0.0010
    45  -0.0000  -0.0001   0.0000   0.0001   0.0001  -0.0002  -0.0000  -0.0000   0.0000  -0.0007
    46   0.0000   0.0000  -0.0000   0.0000  -0.0000   0.0000   0.0000   0.0000   0.0000   0.0000
    47  -0.0000   0.0000   0.0000  -0.0000   0.0000  -0.0000  -0.0000   0.0000   0.0000  -0.0000
    48  -0.0000   0.0000  -0.0000   0.0000   0.0000  -0.0000   0.0000  -0.0000  -0.0000  -0.0004
    49  -0.0670   0.9933  -0.0001   0.0081   0.0317  -0.0182   0.0492   0.0002  -0.0962   0.0556
    50   0.0089   0.0112   0.0005   0.9658  -0.1877   0.0592  -0.1712  -0.0006   0.0783  -0.0628
    51   0.0044   0.0074  -0.0003   0.0003   0.1739  -0.8645  -0.4680  -0.0007   0.0245  -0.0291
    52   0.0000  -0.0000  -0.0063   0.0000  -0.0002  -0.0011   0.0033  -0.9995   0.0018  -0.0005
    53  -0.0004   0.0113  -0.0000  -0.0110   0.0152   0.0143   0.0421   0.0001  -0.1718  -0.9766
    54  -0.0004   0.0128  -0.0001  -0.0042   0.0125   0.0166   0.0288   0.0001   0.0807   0.3414
    55   0.0056   0.0001   0.0000   0.0030   0.0260  -0.0143   0.0396   0.0002  -0.0310   0.0621
    56  -0.0036  -0.0009   0.0000  -0.0013  -0.0147   0.0060  -0.0218  -0.0001   0.0211  -0.0144
    57  -0.0012  -0.0022   0.0000   0.0015  -0.0030   0.0020   0.0016   0.0000   0.0038  -0.0195
    58  -0.0000   0.0000  -0.0008  -0.0000   0.0000  -0.0000   0.0001  -0.0062   0.0003  -0.0001
    59  -0.0001   0.0023   0.0001  -0.0008   0.0002  -0.0037   0.0059   0.0001   0.0021   0.0018
    60   0.0004  -0.0012   0.0000   0.0040   0.0015  -0.0029   0.0031   0.0000   0.0000  -0.0037
    61   0.0000  -0.0000   0.0024  -0.0000   0.0000   0.0001  -0.0003  -0.0015  -0.0003  -0.0000
    62  -0.0000  -0.0000   0.0019  -0.0000  -0.0000   0.0001  -0.0001  -0.0030  -0.0000  -0.0000
    63  -0.0010  -0.0022   0.0000  -0.0000  -0.0046   0.0003  -0.0083  -0.0001   0.0096  -0.0085
    64  -0.0001  -0.0004  -0.0001  -0.0004   0.0007   0.0017  -0.0023  -0.0000  -0.0020   0.0006
    65  -0.0001   0.0027   0.0000  -0.0012   0.0007   0.0029  -0.0002  -0.0000   0.0117  -0.0021
    66  -0.0002   0.0019  -0.0000  -0.0010   0.0010   0.0019   0.0003  -0.0000   0.0080  -0.0029
    67   0.0000   0.0000  -0.0008   0.0000   0.0000  -0.0000   0.0001  -0.0004   0.0001  -0.0000
    68   0.0000  -0.0000   0.0002  -0.0000  -0.0000  -0.0000  -0.0000  -0.0001  -0.0001   0.0000
    69   0.0014  -0.0010  -0.0000   0.0010   0.0035  -0.0028   0.0059   0.0000  -0.0113   0.0074
    70   0.0001   0.0000  -0.0000  -0.0004   0.0002  -0.0002  -0.0006  -0.0000  -0.0010   0.0011
    71   0.0011  -0.0003   0.0000   0.0007   0.0028  -0.0018   0.0050   0.0000  -0.0053   0.0041
    72  -0.0002   0.0001  -0.0000  -0.0005  -0.0011   0.0012  -0.0013  -0.0000   0.0040  -0.0014
    73  -0.0000   0.0000   0.0001  -0.0000  -0.0000   0.0000  -0.0000  -0.0000   0.0000  -0.0000
    74  -0.0003  -0.0004  -0.0000  -0.0000  -0.0013   0.0005  -0.0018  -0.0000   0.0000  -0.0005
    75   0.0002  -0.0000   0.0000   0.0003   0.0004  -0.0003   0.0010   0.0000  -0.0013   0.0007
    76   0.0004  -0.0002   0.0000   0.0005   0.0007  -0.0006   0.0016  -0.0000  -0.0016   0.0012
    77   0.0000  -0.0000   0.0001   0.0000   0.0000  -0.0000   0.0001   0.0002  -0.0001   0.0001
    78   0.0000   0.0000  -0.0003  -0.0000  -0.0000  -0.0000   0.0000  -0.0000   0.0000  -0.0000
    79  -0.0000  -0.0000   0.0002  -0.0000   0.0000   0.0000  -0.0000   0.0002  -0.0000   0.0000
    80  -0.0003   0.0000   0.0000  -0.0002  -0.0009   0.0005  -0.0011  -0.0000   0.0013  -0.0012
    81   0.0003   0.0000   0.0000   0.0002   0.0005  -0.0004   0.0009   0.0000  -0.0001   0.0004
    82   0.0000  -0.0000   0.0000   0.0000   0.0000   0.0000  -0.0000  -0.0003   0.0000  -0.0000
    83   0.0002  -0.0001  -0.0000   0.0001   0.0005  -0.0003   0.0005   0.0000  -0.0008   0.0005
    84   0.0000  -0.0002  -0.0000   0.0000   0.0003  -0.0001   0.0002  -0.0000  -0.0005   0.0002
    85  -0.0003   0.0000  -0.0000  -0.0002  -0.0005   0.0001  -0.0006   0.0000  -0.0002   0.0000
    86   0.0000   0.0000  -0.0000   0.0000  -0.0000  -0.0000   0.0000  -0.0000   0.0000  -0.0000
    87   0.0002  -0.0003  -0.0000   0.0003   0.0006  -0.0006   0.0010   0.0000  -0.0022   0.0013
    88   0.0001  -0.0000   0.0000  -0.0002  -0.0004  -0.0002  -0.0001   0.0000   0.0007  -0.0002
    89   0.0000   0.0000  -0.0004  -0.0000  -0.0000  -0.0000   0.0000   0.0001  -0.0000   0.0000
    90  -0.0003   0.0003  -0.0000  -0.0004  -0.0005   0.0006  -0.0011  -0.0000   0.0020  -0.0012
    91  -0.0000  -0.0000   0.0003   0.0000   0.0000   0.0000  -0.0000  -0.0001  -0.0000  -0.0000
    92   0.0002  -0.0000   0.0000  -0.0000  -0.0001  -0.0003   0.0002   0.0000  -0.0002   0.0002
    93  -0.0001   0.0001  -0.0000  -0.0001  -0.0001   0.0001  -0.0000   0.0000  -0.0000  -0.0000
    94   0.0000   0.0000   0.0000  -0.0000  -0.0000   0.0000  -0.0000  -0.0000   0.0002  -0.0001

 MOs :     11       12       13       14       15       16       17       18       19       20
 occup:   0.00     0.00     0.00     0.00     0.00     0.00     0.00     0.00     0.00     0.00
 CF+SFO
     3   0.0023   0.6310   0.0067  -0.0080   0.0081  -0.2215   0.0328   0.0458   0.0066  -0.1363
     4   0.0075  -0.0014   0.0138   0.0011   0.0014   0.0003  -0.0003   0.0037  -0.0516  -0.0024
     5  -0.0012  -0.2320  -0.0061   0.0296  -0.0176  -0.0487  -0.0108  -0.0520  -0.0057   0.0762
     6   0.0017   0.3499   0.0053  -0.0236  -0.0692   0.0755  -0.0257  -0.0057   0.0012  -0.0652
     7   0.0056   0.9486   0.0138  -0.0545   0.0396  -0.4463   0.0079   0.0502   0.0097  -0.2615
     8  -0.9997   0.0074   0.0093   0.0021  -0.0054  -0.0022   0.0013  -0.0104   0.1447   0.0025
     9  -0.0000  -0.1556  -0.0911   0.9690   0.0592   0.2759   0.1302   0.0652   0.0015   0.1377
    10   0.0331  -0.0068   0.9563   0.0919  -0.0223  -0.0086  -0.0001  -0.0217   0.2931   0.0065
    11   0.0005   0.1306  -0.0158   0.1140  -0.2031  -0.2225  -0.5581   0.4778   0.0448  -0.4120
    12   0.0002   0.0531  -0.0040   0.0454   0.1523   0.0231   0.3509  -0.4318  -0.0039  -0.5142
    13   0.0003   0.1123  -0.0016   0.0185   0.0039  -0.1918  -0.0362  -0.3059  -0.0342   0.5576
    14  -0.0126  -0.0005   0.0222   0.0021  -0.0001  -0.0003   0.0011   0.0154  -0.2490  -0.0245
    15  -0.0015   0.0008  -0.0196  -0.0016  -0.0022  -0.0004   0.0005  -0.0207   0.3329   0.0187
    16  -0.0002  -0.0699   0.0018  -0.0221  -0.0000   0.1181  -0.0116   0.0232   0.0048  -0.0743
    17   0.0002   0.0712   0.0012  -0.0034   0.0516  -0.1047   0.0437   0.0584   0.0065  -0.0688
    18  -0.0006  -0.0000   0.0031   0.0003  -0.0003  -0.0001   0.0003   0.0014  -0.0229  -0.0012
    19   0.0018  -0.0000   0.0062   0.0007  -0.0003   0.0000   0.0000  -0.0017   0.0250   0.0003
    20   0.0001   0.0213   0.0007  -0.0050   0.0067  -0.0367   0.0008  -0.0033   0.0005  -0.0229
    21  -0.0001  -0.0124  -0.0005   0.0022  -0.0009  -0.0105  -0.0011  -0.0061  -0.0004   0.0038
    22   0.0003  -0.0000   0.0032   0.0003  -0.0000   0.0000   0.0001   0.0006  -0.0085  -0.0007
    23  -0.0001  -0.0320  -0.0006   0.0034  -0.0001   0.0156   0.0023   0.0001  -0.0004   0.0119
    24  -0.0000  -0.0019  -0.0001   0.0009   0.0002   0.0002   0.0028   0.0023   0.0001   0.0052
    25   0.0002  -0.0001  -0.0008  -0.0001  -0.0000   0.0000   0.0000   0.0001  -0.0014   0.0001
    26  -0.0001  -0.0430  -0.0004  -0.0003  -0.0020   0.0252  -0.0052  -0.0086  -0.0011   0.0170
    27  -0.0000  -0.0004  -0.0001   0.0005  -0.0010  -0.0012  -0.0010  -0.0019  -0.0002   0.0020
    28   0.0005   0.0000  -0.0001  -0.0000   0.0001   0.0000  -0.0001  -0.0002   0.0037   0.0001
    29  -0.0000  -0.0107  -0.0002   0.0005  -0.0020   0.0056  -0.0003  -0.0022  -0.0003   0.0034
    30  -0.0000   0.0000  -0.0003  -0.0000  -0.0000  -0.0000   0.0000  -0.0002   0.0026   0.0001
    31  -0.0003   0.0000  -0.0004  -0.0000  -0.0000  -0.0000   0.0000  -0.0001   0.0021   0.0001
    32   0.0000   0.0047  -0.0000   0.0002  -0.0006  -0.0050   0.0000  -0.0017   0.0000  -0.0039
    33   0.0002  -0.0000   0.0007   0.0001  -0.0000  -0.0000   0.0000   0.0001  -0.0012  -0.0001
    34  -0.0001   0.0000  -0.0000  -0.0000  -0.0000  -0.0000   0.0000  -0.0001   0.0014   0.0000
    35  -0.0000   0.0002   0.0000  -0.0000   0.0006  -0.0023   0.0003   0.0009   0.0001  -0.0018
    36   0.0000   0.0044   0.0001  -0.0007   0.0005  -0.0048   0.0014   0.0002   0.0002  -0.0070
    37  -0.0000  -0.0025   0.0000  -0.0003   0.0001   0.0021  -0.0002   0.0007   0.0000   0.0010
    38   0.0000   0.0040   0.0001  -0.0003   0.0017  -0.0027   0.0017   0.0036   0.0003  -0.0014
    39   0.0002  -0.0000   0.0002   0.0000  -0.0000   0.0000  -0.0000  -0.0001   0.0005   0.0000
    40   0.0000   0.0011  -0.0000   0.0001  -0.0001  -0.0010   0.0000  -0.0004  -0.0000  -0.0002
    41   0.0000   0.0000  -0.0001   0.0000  -0.0000   0.0000  -0.0000  -0.0001   0.0018   0.0001
    42   0.0000   0.0063   0.0001  -0.0001   0.0007  -0.0037  -0.0001   0.0004   0.0001  -0.0022
    43  -0.0001   0.0000  -0.0003  -0.0000  -0.0001  -0.0000   0.0000  -0.0003   0.0039   0.0001
    44   0.0000   0.0077   0.0000   0.0002  -0.0004  -0.0045   0.0003  -0.0004   0.0000  -0.0020
    45  -0.0000  -0.0027  -0.0000   0.0000   0.0008   0.0008   0.0006   0.0006   0.0001   0.0005
    46   0.0000  -0.0000   0.0001   0.0000   0.0000   0.0000  -0.0000  -0.0000   0.0002   0.0000
    47  -0.0000   0.0000   0.0001   0.0000   0.0000   0.0000  -0.0000   0.0000  -0.0001  -0.0000
    48  -0.0000  -0.0024  -0.0000  -0.0000  -0.0001   0.0010  -0.0002  -0.0003  -0.0000   0.0007
    49   0.0013   0.1674   0.0082  -0.0811  -0.0025  -0.1024  -0.0178  -0.0252   0.0029  -0.1213
    50   0.0002  -0.1805  -0.0054   0.0291  -0.0030   0.0882   0.0018   0.0297  -0.0032   0.1193
    51  -0.0019  -0.1000   0.0046  -0.0291   0.0112   0.0487   0.0405  -0.0038  -0.0019   0.0395
    52  -0.0654  -0.0024   0.0785   0.0097  -0.0026  -0.0000  -0.0013   0.0002   0.0040   0.0013
    53  -0.0102  -0.9120  -0.0166   0.1202   0.0376   0.2593   0.0649  -0.0467  -0.0138   0.3426
    54   0.0003  -1.3290  -0.0128  -0.0427  -0.0163   0.1460  -0.0046  -0.0514  -0.0131   0.2710
    55   0.0004   0.2213   0.0056   0.0447   0.6129  -0.8059  -0.0891   0.1401   0.0102  -0.1234
    56  -0.0011  -0.1415   0.0249  -0.0914   0.6934   0.6043  -0.3795   0.0768  -0.0007   0.1228
    57  -0.0007  -0.0631   0.0132  -0.0764   0.0838   0.0343   0.5620   0.7173   0.0221   0.1820
    58   0.0098   0.0015  -0.1420  -0.0164   0.0070   0.0020   0.0094  -0.0351   0.8542   0.0157
    59  -0.0002   0.0423   0.0052  -0.0080   0.0092   0.0007   0.0716  -0.0320   0.0011  -0.4909
    60   0.0000  -0.0043   0.0020  -0.0267   0.0095   0.0069   0.0307  -0.1626  -0.0083  -0.1007
    61  -0.0033  -0.0004   0.0405   0.0046  -0.0019  -0.0013  -0.0030   0.0060  -0.0519  -0.0065
    62   0.0005  -0.0003   0.0171   0.0017  -0.0003  -0.0005  -0.0001   0.0006  -0.0185  -0.0023
    63  -0.0000  -0.0388  -0.0025   0.0185   0.0039   0.0090   0.0060  -0.0256  -0.0005  -0.0068
    64  -0.0001   0.0022   0.0001   0.0008   0.0050  -0.0015  -0.0016   0.0045   0.0010   0.0057
    65  -0.0000  -0.0174   0.0008  -0.0069  -0.0072   0.0414   0.0005   0.0300  -0.0009   0.0571
    66   0.0000  -0.0098   0.0004   0.0001   0.0020   0.0250   0.0048   0.0117  -0.0005   0.0291
    67  -0.0023  -0.0002   0.0031   0.0002  -0.0002   0.0002  -0.0000  -0.0002   0.0040   0.0008
    68   0.0025   0.0001  -0.0006  -0.0002   0.0000  -0.0002  -0.0000  -0.0001  -0.0001  -0.0002
    69   0.0002   0.0259   0.0011  -0.0092  -0.0018  -0.0178  -0.0039  -0.0008   0.0006  -0.0167
    70  -0.0001  -0.0010   0.0003  -0.0033   0.0013   0.0028   0.0011   0.0012  -0.0002   0.0110
    71   0.0000   0.0155   0.0006  -0.0054   0.0007  -0.0092  -0.0001  -0.0049  -0.0001  -0.0054
    72  -0.0000  -0.0029  -0.0005   0.0045  -0.0009   0.0024  -0.0030   0.0059  -0.0000   0.0058
    73   0.0003  -0.0000   0.0018   0.0001  -0.0000  -0.0000   0.0000  -0.0003   0.0020   0.0002
    74  -0.0000   0.0005  -0.0005   0.0051   0.0005  -0.0032  -0.0007   0.0017   0.0003  -0.0047
    75   0.0000   0.0031   0.0001  -0.0022  -0.0005  -0.0026  -0.0001  -0.0020  -0.0002  -0.0019
    76   0.0000   0.0050   0.0002   0.0001  -0.0007  -0.0034  -0.0020   0.0016   0.0004  -0.0039
    77   0.0002   0.0003  -0.0019  -0.0001   0.0000  -0.0002  -0.0001   0.0002  -0.0013  -0.0005
    78   0.0003  -0.0000  -0.0011  -0.0002   0.0000   0.0000   0.0000   0.0001   0.0000  -0.0000
    79   0.0001   0.0000   0.0002   0.0000   0.0000  -0.0000   0.0000  -0.0001   0.0006   0.0000
    80  -0.0000  -0.0038  -0.0002   0.0014  -0.0004   0.0013  -0.0010   0.0003  -0.0000  -0.0000
    81  -0.0000   0.0013   0.0003  -0.0022  -0.0005   0.0004  -0.0005   0.0021   0.0000   0.0022
    82  -0.0008  -0.0000   0.0019   0.0002  -0.0001   0.0000  -0.0001   0.0001  -0.0002   0.0001
    83   0.0000   0.0015   0.0000  -0.0008   0.0001  -0.0011   0.0003  -0.0018  -0.0001  -0.0002
    84  -0.0000   0.0001   0.0000   0.0002   0.0004  -0.0003   0.0008  -0.0018   0.0000  -0.0017
    85  -0.0000   0.0005   0.0001  -0.0003   0.0001  -0.0007   0.0003   0.0006   0.0001  -0.0010
    86  -0.0002  -0.0000   0.0012   0.0001  -0.0000  -0.0000  -0.0000  -0.0001   0.0007   0.0001
    87   0.0000   0.0050   0.0001  -0.0006   0.0004  -0.0042   0.0003  -0.0030   0.0001  -0.0053
    88  -0.0000  -0.0017  -0.0000  -0.0001  -0.0006   0.0007  -0.0021   0.0025   0.0000   0.0034
    89   0.0007   0.0000  -0.0004  -0.0001  -0.0000  -0.0000  -0.0001   0.0001  -0.0000  -0.0000
    90  -0.0000  -0.0038  -0.0000   0.0009   0.0003   0.0037   0.0016   0.0010  -0.0001   0.0036
    91  -0.0003   0.0000  -0.0004  -0.0000   0.0000   0.0000   0.0000  -0.0001   0.0000  -0.0000
    92  -0.0000   0.0009   0.0001  -0.0004   0.0000  -0.0006  -0.0005   0.0017   0.0002  -0.0006
    93   0.0000  -0.0004   0.0001  -0.0010  -0.0001   0.0006   0.0002  -0.0004  -0.0001   0.0014
    94  -0.0000  -0.0002  -0.0000   0.0002  -0.0000   0.0002  -0.0001   0.0002  -0.0000   0.0003

 MOs :     21       22       23       24       25       26       27       28       29       30
 occup:   0.00     0.00     0.00     0.00     0.00     0.00     0.00     0.00     0.00     0.00
 CF+SFO
     3  -0.0049   0.0535   0.0010  -0.1286   0.6218  -0.0452  -0.0331  -0.0382  -0.1319   0.6000
     4   0.0259   0.0011  -0.0204  -0.0006  -0.0029  -0.0283  -0.0719   0.0502   0.0017   0.0006
     5   0.0012  -0.0960  -0.0059   0.0495  -0.1969   0.0143   0.0373   0.0562   0.0074  -0.2356
     6  -0.0017   0.0637   0.0047  -0.1871   0.2740  -0.0208  -0.0584  -0.0808   0.0497   0.2839
     7  -0.0109   0.0889   0.0042  -0.2530   0.8884  -0.0649  -0.0365  -0.0441  -0.0830   0.9034
     8   0.0142  -0.0004  -0.0011   0.0002   0.0077   0.0943   0.0618  -0.0425  -0.0019   0.0018
     9   0.0060  -0.0334  -0.0047   0.1947  -0.1508   0.0125   0.0212   0.0301  -0.0693  -0.2119
    10   0.0064  -0.0022   0.0082  -0.0011   0.0118   0.1031   0.1382  -0.0944  -0.0025   0.0022
    11  -0.0055   0.3922   0.0247  -0.1843   0.6845  -0.0482  -0.1244  -0.1861   0.0796   0.6689
    12  -0.0139   0.2048   0.0178  -0.6034   0.5829  -0.0447  -0.1021  -0.1478   0.2722   0.5420
    13   0.0358   0.7119   0.0405   0.0368   0.1911  -0.0167  -0.0979  -0.1508   0.0710   0.2715
    14   0.6644  -0.0558   0.5916   0.0009   0.0163   0.0743   0.3349  -0.2273  -0.0047  -0.0024
    15  -0.2301  -0.0391   0.7109   0.0171  -0.0262  -0.3982  -0.3416   0.2333   0.0063   0.0010
    16   0.0031   0.3681   0.0262  -0.0931   0.0891  -0.0039   0.3872   0.5842  -0.5152  -0.3606
    17  -0.0012   0.0532   0.0008   0.2651  -0.0364   0.0065   0.3068   0.4389   0.5331   0.2415
    18   0.0002   0.0005   0.0034   0.0005  -0.0040  -0.0220  -0.1583   0.1121   0.0109   0.0078
    19   0.0155  -0.0001  -0.0068  -0.0002   0.0031   0.0382   0.0305  -0.0206  -0.0015   0.0053
    20  -0.0012  -0.0019  -0.0000  -0.0146   0.0492  -0.0033   0.0154   0.0231  -0.0224   0.0653
    21   0.0002  -0.0100  -0.0006  -0.0047  -0.0224   0.0015  -0.0084  -0.0122   0.0733  -0.0219
    22   0.0107   0.0005  -0.0076  -0.0001  -0.0003   0.0030  -0.0427   0.0304   0.0011   0.0016
    23   0.0003  -0.0095  -0.0006   0.0192  -0.0344   0.0028   0.0168   0.0258  -0.0403  -0.1144
    24   0.0005   0.0062   0.0003   0.0078  -0.0053   0.0004  -0.0089  -0.0136   0.0087  -0.0079
    25  -0.0051  -0.0001   0.0053  -0.0000  -0.0005   0.0053   0.0049  -0.0040  -0.0006  -0.0005
    26   0.0005  -0.0131  -0.0006   0.0145  -0.0736   0.0054   0.0118   0.0170  -0.0169  -0.1015
    27  -0.0001  -0.0040  -0.0002  -0.0072   0.0031  -0.0002  -0.0006   0.0000   0.0010  -0.0088
    28   0.0037  -0.0002  -0.0012  -0.0001   0.0008   0.0002   0.0182  -0.0123  -0.0002   0.0000
    29   0.0001  -0.0041  -0.0002   0.0004  -0.0148   0.0009   0.0035   0.0055  -0.0146  -0.0356
    30  -0.0006  -0.0000   0.0003  -0.0000   0.0002   0.0031   0.0052  -0.0037  -0.0002  -0.0000
    31  -0.0012   0.0000   0.0005   0.0000   0.0001   0.0016   0.0013  -0.0010  -0.0001  -0.0000
    32  -0.0002   0.0008   0.0001  -0.0080   0.0129  -0.0010  -0.0024  -0.0034   0.0166   0.0267
    33   0.0007  -0.0000   0.0003   0.0000  -0.0002  -0.0010  -0.0060   0.0042   0.0001   0.0001
    34   0.0002   0.0000  -0.0003  -0.0000   0.0001   0.0010   0.0010  -0.0007  -0.0000   0.0000
    35  -0.0000   0.0013   0.0001  -0.0013   0.0040  -0.0003  -0.0019  -0.0029  -0.0006   0.0075
    36  -0.0002   0.0054   0.0003  -0.0036   0.0145  -0.0011  -0.0046  -0.0074   0.0196   0.0254
    37   0.0001   0.0010   0.0001   0.0025  -0.0037   0.0003  -0.0008  -0.0014  -0.0023  -0.0027
    38   0.0001   0.0026   0.0001   0.0056   0.0027  -0.0002  -0.0024  -0.0037  -0.0178   0.0008
    39   0.0008  -0.0000  -0.0004  -0.0000   0.0001  -0.0002   0.0009  -0.0005   0.0002   0.0000
    40  -0.0000  -0.0001  -0.0000  -0.0012   0.0020  -0.0001  -0.0004  -0.0005   0.0016   0.0022
    41   0.0003  -0.0000  -0.0001   0.0000   0.0001   0.0000   0.0029  -0.0020  -0.0000  -0.0000
    42  -0.0001  -0.0001   0.0000  -0.0028   0.0111  -0.0007   0.0002   0.0006  -0.0029   0.0109
    43  -0.0000  -0.0000   0.0005  -0.0000   0.0003   0.0061   0.0053  -0.0037  -0.0002   0.0001
    44  -0.0001  -0.0001  -0.0000  -0.0033   0.0086  -0.0007  -0.0002  -0.0000   0.0013   0.0081
    45   0.0001   0.0013   0.0000   0.0045  -0.0058   0.0005  -0.0016  -0.0027   0.0032  -0.0079
    46   0.0005   0.0000  -0.0005  -0.0000   0.0001   0.0003   0.0011  -0.0007   0.0000   0.0000
    47   0.0010   0.0000  -0.0010   0.0000   0.0000  -0.0029  -0.0005   0.0004   0.0001  -0.0000
    48   0.0000  -0.0004  -0.0000   0.0005  -0.0030   0.0002   0.0003   0.0004   0.0005  -0.0030
    49  -0.0035   0.0547   0.0037  -0.1362   0.2552  -0.0195  -0.0871  -0.1285   0.1009   0.3111
    50   0.0024  -0.0747  -0.0044   0.1182  -0.2687   0.0196   0.0676   0.1018  -0.1432  -0.3436
    51   0.0002  -0.0838  -0.0050   0.0540  -0.1579   0.0126   0.0587   0.0860  -0.0684  -0.2004
    52   0.0249   0.0006  -0.0111   0.0008   0.0004   0.0288   0.0313  -0.0224  -0.0016  -0.0025
    53   0.0090  -0.2373  -0.0148   0.3660  -0.9075   0.0675   0.1447   0.2075  -0.0966  -0.9608
    54   0.0065  -0.1938  -0.0112   0.2832  -0.8216   0.0582   0.0553   0.0793  -0.0609  -0.8662
[...]
   84   -4.67235666818767E-07 -1.03451135532201E-06 -5.07982606102824E-07 -4.98858220535001E-07
   85   -9.74559965233389E-07 -4.18418807272853E-07 -9.17269081380548E-07 -9.28660058013599E-07
   86   -4.22636612985249E-10 -9.79612870670579E-08 -7.21284821765910E-11 -1.19977686889671E-13
   87    1.90407778368334E-08 -3.67533035922589E-08  2.27864290651180E-08  2.32190322284245E-08
   88   -9.03355444522932E-08 -4.03381709595118E-07 -1.08789784043437E-07 -1.04791628233446E-07
   89    6.17809648900117E-12 -1.11937508809915E-07 -9.00602194786947E-10 -5.64646643759020E-10
   90   -9.37785079220800E-07 -4.03015995724001E-07 -8.82107327273391E-07 -8.94249773012193E-07
   91   -1.07231147553614E-09 -9.04467616630052E-08 -1.16531231489776E-11 -7.82215995204402E-11
   92   -9.94373471889887E-09 -2.00959313764543E-07 -1.76688776911288E-08 -1.62607350592785E-08
   93   -1.73216264814363E-06 -9.45962828815996E-07 -1.65492615049571E-06 -1.66992456183353E-06
   94   -1.23702413996143E-07 -3.12713878829375E-10 -1.04014082391841E-07 -1.08239228587008E-07

 column          79                    80                    81                    82
 row
   79    1.00000000000000E+00
   80   -2.40685711404869E-08  9.99999999999943E-01
   81    5.60488863145772E-09 -2.40650096416410E-08  1.00000000000007E+00
   82   -8.13216462993865E-11 -2.69795756586751E-08  6.06211221050372E-09  1.00000000000000E+00
   83   -1.39685840440720E-07 -4.35080327809305E-08 -1.63856918911320E-07 -1.46557179758412E-07
   84   -4.89450884205557E-07 -2.92078570946588E-07 -5.31333428513213E-07 -5.02166077776326E-07
   85   -9.42996660696461E-07 -1.28779425208193E-06 -8.45510702469607E-07 -9.25187034757789E-07
   86   -1.73988374091954E-11 -2.54069053218825E-08  5.60995378097661E-09 -1.87565441784135E-11
   87    2.11272690161051E-08 -3.37306431875213E-08  5.74219898655454E-08  2.23775715571038E-08
   88   -1.00244122594930E-07 -2.15502967996593E-08 -1.21564600365673E-07 -1.06102092124854E-07
   89   -2.78412013447666E-10 -1.87233288959585E-08  3.58209642208802E-09 -6.71081364576608E-10
   90   -9.06922455793641E-07 -1.23192711897831E-06 -8.38004374083602E-07 -8.89812919820286E-07
   91   -2.79216998041176E-10 -2.96961374884510E-08  6.59967559546846E-09 -5.76419226857124E-11
   92   -1.39085501412799E-08  8.89371509952785E-09 -2.82966327520408E-08 -1.64885880763554E-08
   93   -1.68975399088087E-06 -2.15050912180920E-06 -1.55024938093693E-06 -1.66563126053192E-06
   94   -1.12647067268462E-07 -2.42477961101888E-07 -8.55735577711527E-08 -1.06672984806470E-07

 column          83                    84                    85                    86
 row
   83    1.00000000000001E+00
   84   -1.04880787236519E-07  1.00000000000000E+00
   85   -1.81125989293310E-06 -2.80796013702233E-06  1.00000000000002E+00
   86   -1.43177580360302E-07 -4.95785202309505E-07 -9.33609205383387E-07  9.99999999999998E-01
   87   -1.59399246789971E-07 -5.60323856875966E-07 -8.41412673514265E-07  2.22546810370946E-08
   88   -3.14713023991328E-09 -1.44374476657966E-07 -1.65907986999459E-06 -1.03247048196079E-07
   89   -1.27366827875254E-07 -4.65855258380095E-07 -9.75730718842541E-07 -4.62190801545221E-10
   90   -1.76069296961747E-06 -2.72892887471696E-06  2.50095223217203E-08 -8.98368741648567E-07
   91   -1.52458066552335E-07 -5.13140352870576E-07 -9.10638298137944E-07 -1.42642723092691E-10
   92   -5.58578834019429E-08 -3.14366610323649E-07 -1.20232117176629E-06 -1.53730023264007E-08
   93   -2.80972034670658E-06 -4.03591212455462E-06 -1.05364626631975E-07 -1.67686890657298E-06
   94   -5.04335186680395E-07 -1.07184995520863E-06 -3.93111501548881E-07 -1.09660853154330E-07

 column          87                    88                    89                    90
 row
   87    9.99999999999961E-01
   88   -1.10639715638176E-07  1.00000000000002E+00
   89    1.97428350558778E-08 -8.98926738465106E-08  1.00000000000000E+00
   90   -7.57975627894150E-07 -1.61389470676763E-06 -9.39757741628829E-07  1.00000000000003E+00
   91    2.27796876970132E-08 -1.11118596159552E-07 -1.12257027245123E-09 -8.75320248341058E-07
   92    1.04652208025821E-08 -3.24397964287967E-08 -1.00472821233617E-08 -1.17916804759889E-06
   93   -1.57919123995592E-06 -2.61738590866870E-06 -1.73341354320142E-06 -6.48706884459616E-08
   94   -4.48102832650994E-08 -4.27109723339395E-07 -1.24439311198591E-07 -3.80237288470678E-07

 column          91                    92                    93                    94
 row
   91    1.00000000000000E+00
   92   -1.85966621316300E-08  9.99999999999985E-01
   93   -1.64607916372657E-06 -2.02702114657850E-06  9.99999999999981E-01
   94   -1.01678749256879E-07 -2.18305767113125E-07 -9.07131338083573E-07  1.00000000000001E+00


 SFO contributions (%) per orbital
 (multiplication by the orbital occupation yields the SFO Gross Populations)

 Orb.:        1      2      3      4      5      6      7      8      9     10     11     12
 occup:     2.00   2.00   2.00   2.00   2.00   2.00   2.00   2.00   0.00   0.00   0.00   0.00
 CF+SFO     ----   ----   ----   ----   ----   ----   ----   ----   ----   ----   ----   ----
 ------
      3:   99.48   0.48  -0.00   0.05   0.01   0.01   0.00  -0.00  -0.00   0.01   0.00   0.04
      4:   -0.00  -0.00  99.94   0.00   0.00   0.00   0.00   0.01  -0.00  -0.00   0.01   0.00
      5:    0.01   0.03   0.00   2.72  92.52   4.00   0.03   0.00   0.02   0.01   0.00   0.19
      6:    0.01   0.08   0.00   2.33   0.16  20.18  75.65   0.00   0.01   0.13   0.00   0.44
      7:    0.00   0.10   0.00   0.09  -0.00   0.03   0.03   0.00  93.23   8.76   0.00  -0.39
      8:   -0.00  -0.00   0.00  -0.00  -0.00  -0.00  -0.00   0.02  -0.00   0.00  99.67   0.00
      9:    0.00   0.01   0.00   0.01   0.00  -0.01  -0.00   0.00   0.04   0.03  -0.00  -1.04
     11:    0.00   0.06   0.00   0.03   0.00   0.05   0.03   0.00   0.04  -0.07  -0.00  -5.36
     12:    0.00   0.10   0.00  -0.01   0.01   0.00   0.05   0.00   0.01   0.03  -0.00  -2.38
     49:    0.53  99.01  -0.00  -0.00   0.02  -0.00   0.06   0.00   0.00  -0.00  -0.00   0.04
     50:    0.04   0.01   0.00  94.72   2.88   0.18   1.83   0.00  -0.00   0.05  -0.00   0.09
     51:    0.01   0.00   0.00   0.00   3.70  75.52  20.41   0.00   0.00   0.02   0.00   0.16
     52:    0.00  -0.00   0.01   0.00   0.00   0.00   0.00  99.92   0.00  -0.00   0.02   0.00
     53:   -0.01   0.02   0.00  -0.02   0.20  -0.05   0.70   0.00   9.50  71.59   0.01  20.62
     54:   -0.01   0.03  -0.00  -0.01   0.13  -0.06   0.45   0.00  -2.17  19.74  -0.00  87.09


 Summation over all MOs, multiplied by occupation: Total SFO Gross Populations in this Irrep
 ===========================================================================================

     0.00    0.00    2.00    2.00    1.99    1.97    0.01    0.00    0.00    0.00    0.00    0.00
     0.00    0.00    0.00    0.00    0.00   -0.00   -0.00    0.00   -0.00    0.00    0.00   -0.00
     0.00   -0.00    0.00   -0.00    0.00    0.00   -0.00   -0.00    0.00    0.00   -0.00   -0.00
    -0.00   -0.00   -0.00   -0.00    0.00   -0.00    0.00   -0.00   -0.00   -0.00   -0.00   -0.00
     1.99    1.99    1.99    2.00    0.02    0.01    0.02    0.00    0.00    0.00    0.00    0.00
     0.00    0.00    0.00    0.00   -0.00    0.00    0.00    0.00   -0.00    0.00   -0.00   -0.00
     0.00    0.00    0.00   -0.00    0.00    0.00    0.00    0.00    0.00   -0.00   -0.00   -0.00
    -0.00    0.00   -0.00   -0.00   -0.00   -0.00   -0.00   -0.00   -0.00    0.00



 List of all MOs, ordered by energy, with the most significant SFO gross populations
 ===================================================================================

 Each percentage contribution in the table below corresponds to the indicated SFO.
 In general, a SFO may be a linear combination of several Fragment Orbitals on the same,
 or on symmetry-related Fragments. Only the first 'member' of such a combination is
 specified here. A full definition of all SFOs is given in an earlier part of the output.
 The numbering of the SFOs in this table does NOT include the Core Orbitals, and starts
 from one for each symmetry representation, as in the SFO definition list earlier.

       E(eV)  Occ       MO           %     SFO (first member)   E(eV)  Occ   Fragment
 -------------------------------------------------------------------------------------

     -24.455  2.00     2 A         99.01%     1 A             -25.259  2.00     2 frag2
                                    0.48%     1 A             -25.297  2.00     1 frag1
     -13.882  2.00     3 A         99.94%     2 A             -13.120  2.00     1 frag1
                                    0.02%    13 A              14.637  0.00     2 frag2
     -12.392  2.00     4 A         94.72%     2 A             -13.069  2.00     2 frag2
                                    2.72%     3 A              -9.443  2.00     1 frag1
                                    2.33%     4 A              -7.333  2.00     1 frag1
     -10.339  2.00     5 A         92.52%     3 A              -9.443  2.00     1 frag1
                                    3.70%     3 A              -9.452  2.00     2 frag2
                                    2.88%     2 A             -13.069  2.00     2 frag2
      -8.815  2.00     6 A         75.52%     3 A              -9.452  2.00     2 frag2
                                   20.18%     4 A              -7.333  2.00     1 frag1
                                    4.00%     3 A              -9.443  2.00     1 frag1
      -8.041  2.00     7 A         75.65%     4 A              -7.333  2.00     1 frag1
                                   20.41%     3 A              -9.452  2.00     2 frag2
                                    1.83%     2 A             -13.069  2.00     2 frag2
      -6.620  2.00     8 A         99.92%     4 A              -7.325  2.00     2 frag2
                                    0.02%     8 A               6.232  0.00     1 frag1
      -1.056  0.00     9 A         93.23%     5 A              -0.645  0.00     1 frag1
                                    9.50%     5 A              -0.663  0.00     2 frag2
                                   -2.17%     6 A               1.272  0.00     2 frag2
       0.441  0.00    10 A         71.59%     5 A              -0.663  0.00     2 frag2
                                   19.74%     6 A               1.272  0.00     2 frag2
                                    8.76%     5 A              -0.645  0.00     1 frag1
       0.994  0.00    11 A         99.67%     6 A               1.291  0.00     1 frag1
                                    0.15%    10 A               9.912  0.00     2 frag2
       3.407  0.00    12 A         87.09%     6 A               1.272  0.00     2 frag2
                                   20.62%     5 A              -0.663  0.00     2 frag2
                                   -5.36%     9 A               8.739  0.00     1 frag1
                                   -2.38%    10 A               9.922  0.00     1 frag1
                                   -1.04%     7 A               5.929  0.00     1 frag1



 =======================================================================
 Electrostatic potential at the Nuclei due to electrons and other nuclei
 =======================================================================
  
         Atom                  Potential
         ----                  ---------
     1)   O                  22.26100901
     2)   H                   0.96693845
     3)   H                   0.96705632
     4)   O                  22.32237537
     5)   H                   1.02698480
     6)   H                   1.02295830



 ===================================================
 ETS-NOCV-decomposition: taken restricted  fragments
 ===================================================
  
 1. Eigenvalue pairs from diagonalization of DeltaP expressed in Lowdin:
    1  -0.13742   92   0.13742
    2  -0.03744   91   0.03744
    3  -0.02209   90   0.02209
    4  -0.01950   89   0.01950
    5  -0.01710   88   0.01710
    6  -0.01413   87   0.01413
    7  -0.01075   86   0.01075
    8  -0.00649   85   0.00649
 2. Orbital Interaction Energy Contributions from each NOCV pair (in a.u.)
   1  -0.00619
   2  -0.00047
   3  -0.00020
   4  -0.00010
   5  -0.00013
   6  -0.00010
   7  -0.00011
   8  -0.00003
 3. Orbital Interaction Energy Contributions from each NOCV pair (in kcal/mol)
   1  -3.88595
   2  -0.29494
   3  -0.12576
   4  -0.06194
   5  -0.08345
   6  -0.06446
   7  -0.07018
   8  -0.01579



 =======================================================
 SFO decomposition of Delta rho k (major contributions):
 =======================================================
  
 Threshold for a NOCVs energy (in kcal/mol) is   2.00000000000000     
 Threshold for an individual SFO contribution is  1.000000000000000E-002

   1   NOCV eigenvalues:  -0.13742   0.13742, sum from all SFOs:   -0.37229E-05
       Corresponding Delta E k:  -3.88595  (kcal/mol)
        4   SFO contribution:  -0.03633
       51   SFO contribution:   0.01909
       53   SFO contribution:   0.01597
        3   SFO contribution:  -0.01306
       52   SFO contribution:   0.01258
 The rest of NOCVs:
 Corresponding Delta E rest: -0.716506467365669     
 There are no SFO contributions larger than :  1.000000000000000E-002
 Trace of (Delta P S) = -1.146755438577560E-005



 =============================
 END OF ETS-NOCV decomposition
 =============================
  
 
 
 ========================
 No memory problems found
 ========================
 
 Maximum number of active allocate calls:         615
 
 *******************************************************************************

                             A D F   E X I T
 NORMAL TERMINATION



 =================
 Timing Statistics
 =================
  
 Total Used :                     CPU=       14.02      System=        0.27     Elapsed=       14.87

 Calls  Section                     ( Mean, Percentage )
 ---------------------------------------------------------------------------------------------------
     3  ><      ................      0.00    0.00             0.00    1.47             0.00    0.01
     1  INIT    ................      0.46    3.31             0.07   26.47             0.55    3.70
     1  GEOMET  ................      0.06    0.43             0.02    5.88             0.08    0.54
     1  FRAGM   ................      0.01    0.09             0.01    2.94             0.02    0.15
     1  INPUTA  ................      0.00    0.03             0.00    0.00             0.00    0.00
     1  ATDEN   ................      0.01    0.06             0.00    0.00             0.01    0.06
     1  MAINSY  ................      0.02    0.17             0.00    0.00             0.02    0.16
     1  SYMFIT  ................      0.00    0.03             0.00    0.00             0.01    0.06
     1  CORORT  ................      0.00    0.03             0.00    0.00             0.00    0.02
     1  SYMORB  ................      0.00    0.03             0.00    0.00             0.01    0.04
     1  CLSMAT  ................      0.01    0.06             0.00    1.47             0.01    0.07
     1  ORTHON  ................      0.01    0.09             0.00    0.00             0.01    0.08
     1  GENPT   ................      0.18    1.28             0.00    1.47             0.19    1.29
     1  PTBAS   ................      0.08    0.60             0.00    1.47             0.09    0.62
    11  FOCKY   ................      0.43   33.96             0.00   19.12             0.45   33.60
    11  FOCKTR  ................      0.00    0.20             0.00    0.00             0.00    0.19
    11  SDIIS   ................      0.00    0.31             0.00    4.41             0.01    0.39
     1  COREPS  ................      0.38    2.74             0.01    2.94             0.41    2.74
     1  TOTEN   ................      1.10    7.88             0.01    2.94             1.15    7.76
     1  POPAN   ................      0.00    0.00             0.00    1.47             0.00    0.03
     1  DEBYE   ................      0.01    0.06             0.00    0.00             0.01    0.05
     1  INPUTE  ................      0.00    0.00             0.00    0.00             0.00    0.01
     1  SYMORE  ................      0.00    0.03             0.00    0.00             0.00    0.01
     1  METS    ................      0.00    0.00             0.00    0.00             0.00    0.01
     1  CETS    ................      0.02    0.11             0.00    0.00             0.02    0.12
     1  POPUL   ................      6.74   48.09             0.08   27.94             7.11   47.81
     1  EXIT PROCEDURE .........      0.06    0.43             0.00    0.00             0.07    0.48


 Currently Open Files (EXIT00)
 ====================

 Unit    Access Format  Status   Type       Ident (file)
 -------------------------------------------------------
   3      SEQ    FORM   TRANSP  NORMAL      LOGFILE
                                          ( logfile )


 Buffered I/O statistics
 =======================
 Memory available:                     67108864
 Number of records fitting in memory:     16131
 Input :   1.4% of                        62962  *4k bytes
 Output:  11.4% of                         4898  *4k bytes
 Records from serial files evicted:           0
                    others evicted:           0
 Hash table lookups:     178255 with          0 conflicts (  0.00%)

 ***************************************************************************************************
 (LOGFILE)
 <Apr01-2021> <08:21:58>  ADF 2017  RunTime: Apr01-2021 08:21:58  Nodes: 1  Procs: 4
 <Apr01-2021> <08:21:58>  Complex
 <Apr01-2021> <08:21:58>  RunType   : SINGLE POINT
 <Apr01-2021> <08:21:58>  Net Charge: 0 (Nuclei minus Electrons)
 <Apr01-2021> <08:21:58>  Symmetry  : NOSYM
 <Apr01-2021> <08:21:58>  >>>> FRAGM
  Coordinates
    Atom         X           Y           Z   (Angstrom)
    1.O        -0.008650    0.178874    0.090112
    2.H         0.279063    0.026877    1.009864
    3.H         0.824570    0.171103   -0.417672
    4.O        -1.263709   -2.321444   -0.648595
    5.H        -0.902354   -1.435104   -0.414516
    6.H        -2.145956   -2.118384   -1.007632
 <Apr01-2021> <08:21:58>  >>>> CORORT
 <Apr01-2021> <08:21:58>  >>>> CLSMAT
 <Apr01-2021> <08:21:58>  >>>> ORTHON
 <Apr01-2021> <08:21:58>  >>>> GENPT
 <Apr01-2021> <08:21:58>  Block Length= 128
 <Apr01-2021> <08:21:59>  >>>> PTBAS
 <Apr01-2021> <08:21:59>  >>>> CYCLE
 <Apr01-2021> <08:21:59>              |Error|         MaxErr       Wt(A-DIIS)
 <Apr01-2021> <08:21:59>      1      0.14353884      0.05320741
 <Apr01-2021> <08:22:00>      2      0.04875498      0.01833464    100.0
 <Apr01-2021> <08:22:00>      3      0.02216412      0.00730870    100.0
 <Apr01-2021> <08:22:01>      4      0.03843834      0.01496868    100.0
 <Apr01-2021> <08:22:01>      5      0.00368491      0.00086278      0.0
 <Apr01-2021> <08:22:01>      6      0.00077023      0.00029783      0.0
 <Apr01-2021> <08:22:02>      7      0.00006362      0.00001931      0.0
 <Apr01-2021> <08:22:02>      8      0.00004439      0.00001606      0.0
 <Apr01-2021> <08:22:03>      9      0.00000505      0.00000127      0.0
 <Apr01-2021> <08:22:03>     10      0.00000049      0.00000016      0.0
 <Apr01-2021> <08:22:03>  SCF converged
 <Apr01-2021> <08:22:04>     11      0.00000005      0.00000001      0.0
 <Apr01-2021> <08:22:04>  >>>> TOTEN
 <Apr01-2021> <08:22:05>  >>>> POPAN
 <Apr01-2021> <08:22:05>  >>>> DEBYE
 <Apr01-2021> <08:22:05>  >>>> AMETS
 <Apr01-2021> <08:22:12>   Bond Energy          -0.00717607 a.u.
 <Apr01-2021> <08:22:12>   Bond Energy          -0.19527068 eV
 <Apr01-2021> <08:22:12>   Bond Energy          -4.50       kcal/mol
 <Apr01-2021> <08:22:12>  >>>> POPUL
 <Apr01-2021> <08:22:12>  NORMAL TERMINATION
 <Apr01-2021> <08:22:12>  END
