--- PyADF *** new job *** PyADF ---
 
Create H   file=ADZP-H
 XC
   GGA BLYP
End
STOFIT

 *******************************************************************************
 *                                                                             *
 *  -------------------------------------                                      *
 *   Amsterdam Density Functional  (ADF)         2018                          *
 *  -------------------------------------                                      *
 *                                               r70630 2018-11-24             *
 *                                                                             *
 *                                                                             *
 *                              =================                              *
 *                              |               |                              *
 *                              |     A D F     |                              *
 *                              |               |                              *
 *                              =================                              *
 *                                                                             *
 *                                                                             *
 *   Online information and documentation:  https://www.scm.com/support/       *
 *   E-mail:  support@scm.com   info@scm.com                                   *
 *                                                                             *
 *   Scientific publications using ADF results must be properly referenced     *
 *   See the User Manuals (or the web site) for recommended citations          *
 *   The terms and conditions of the End User License Agreement apply to       *
 *   the use of ADF, https://www.scm.com/license-terms/                        *
 *                                                                             *
 **********************  x86_64_linux_intel / intelmpi  ************************
 
 Licensed to: Prof. Nazzareno Re / Facolta' di Farmacia Universita "G. d'Annunzio" / Chieti / IT
 SCM User ID: u7154
  
 ADF 2018  RunTime: May20-2020 08:41:14  Nodes: 1  Procs: 1

 Temporary files are created in /home/mdesantis/pybertha/psi4embedrt/short/jobtempdir/kid_0.1262595329

 Hydrogen (AUG-DZP)



 ===========================
 A T T A C H E D   F I L E S
 ===========================
  
 CREATE - Data File:    ADZP-H
                        Hydrogen (AUG-DZP)



 ===============================
 M O D E L   P A R A M E T E R S
 ===============================
  
 DENSITY FUNCTIONAL POTENTIAL (scf)
    LDA:                               Exchange only                           == Not Default ==
    Gradient Corrections:              Becke88 LYP                             == Not Default ==

 SPIN  (restricted / unrestr.)
    Molecule:                          Restricted                               

 OTHER ASPECTS
    Relativistic Corrections:          ---                                      

    Nuclear Charge Density Model:      Point Charge Nuclei                      
    Core Treatment:                    Frozen Orbital(s)                        

    Hyperfine or Zeeman Interaction:   ---                                      



 =====================================
 S Y M M E T R Y ,   E L E C T R O N S
 =====================================
  
 Symmetry: ATOM

 Irreducible Representations, including subspecies
 -------------------------------------------------
 S
 P:x  P:y  P:z
 D:z2  D:x2-y2  D:xy  D:xz  D:yz
 F:z3  F:z  F:xyz  F:z2x  F:z2y  F:x  F:y


 Configuration of Valence Electrons
 ==================================

          Occupation Numbers
          -------------------------------------------------
 S        1
 P        0
 D        0
 F        0
          -------------------------------------------------

 Total:   1

 Net Charge: 0 (Nuclei minus Electrons)

 Preset values for MO occupations will be applied through SCF cycle no. 1000000
 Thereafter, the program will assign electrons to MOs that are spatially
 similar to the occupied MOs in a "reference" cycle ("KeepOrbitals").
 The reference cycle is always the PREVIOUS cycle: it will evolve with
 the SCF procedure.



 ================================
 (Slater-type)  F U N C T I O N S  ***  (Basis and Fit)  ***
 ================================
  

 Atom Type    1  (H)
 ==============

 Valence Basis Sets:   5
 -----------------------
   1 S    0.760000
   1 S    1.280000
   2 P    1.250000
   2 P    0.811700
   1 S    0.441800

 Charge Fitting Sets (for the computation of the Coulomb Potential):  16
 -----------------------------------------------------------------------
   1 S    3.160000
   1 S    2.090000
   1 S    1.380000
   2 S    1.500000
   2 S    1.154000
   2 S    0.888000
   2 P    4.000000
   2 P    2.650000
   2 P    1.750000
   2 P    1.167000
   3 D    4.000000
   3 D    2.500000
   3 D    1.471000
   4 F    3.000000
   4 F    1.579000
   5 G    4.000000


 BAS: List of all Elementary Cartesian Basis Functions
 =====================================================

 The numbering in the list below (to the right of the function characteristics) is referred
 to in print-outs of MO eigenvectors and Mulliken populations in the BAS representation
 (as contrasted to the SFO representation).

 Notes:
 1. The functions are characterized by a polynomial prefactor (powers of x,y,z and r) and
    an exponential decay factor alpha.
 2. Since the basis sets are specific for an atom TYPE, the individual functions occur on
    all atoms of that type.
 3. The word 'Core' in the left margin signals that it is a Core Function (CF) : not a
    degree of freedom in the valence set, but only used to ensure orthogonalization of
    the other valence basis functions on the frozen Core Orbitals.


 (power of) X  Y  Z  R     Alpha  on Atom
            ==========     =====     ==========

 H                                    1
                                  ---------------------------------------------------------------------------
            0  0  0  0     0.760      1
            0  0  0  0     1.280      2
            1  0  0  0     1.250      3
            0  1  0  0     1.250      4
            0  0  1  0     1.250      5
            1  0  0  0     0.812      6
            0  1  0  0     0.812      7
            0  0  1  0     0.812      8
            0  0  0  0     0.442      9

 Total number of charge fitting functions (nprimf)        71
 Total number of Cartesian basis functions (naos)          9
 Total number of Cartesian core functions  (ncos)          0



 BAS: List of all Elementary Cartesian Basis Functions
 =====================================================

 The numbering in the list below (to the right of the function characteristics) is referred
 to in print-outs of MO eigenvectors and Mulliken populations in the BAS representation
 (as contrasted to the SFO representation).

 Notes:
 1. The functions are characterized by a polynomial prefactor (powers of x,y,z and r) and
    an exponential decay factor alpha.
 2. Since the basis sets are specific for an atom TYPE, the individual functions occur on
    all atoms of that type.
 3. The word 'Core' in the left margin signals that it is a Core Function (CF) : not a
    degree of freedom in the valence set, but only used to ensure orthogonalization of
    the other valence basis functions on the frozen Core Orbitals.


 (power of) X  Y  Z  R     Alpha  on Atom
            ==========     =====     ==========

 H                                    1
                                  ---------------------------------------------------------------------------
            0  0  0  0     0.760      1
            0  0  0  0     1.280      2
            1  0  0  0     1.250      3
            0  1  0  0     1.250      4
            0  0  1  0     1.250      5
            1  0  0  0     0.812      6
            0  1  0  0     0.812      7
            0  0  1  0     0.812      8
            0  0  0  0     0.442      9
1
 ***************************************************************************************************



                                              ***********************
                                              *  T E C H N I C A L  *
                                              ***********************
  



 =============================================================
 P A R A L L E L I Z A T I O N  and  V E C T O R I Z A T I O N
 =============================================================
  
 Nr of parallel processes:                                1
 Maximum vector length in NumInt loops:                 128

 IO buffersize (Mb):                                     64.000000



 =====================
 S C F   U P D A T E S
 =====================
  
 Max. nr. of cycles:                               300
 Convergence criterion:                              0.0000000100
   secondary criterion:                              0.0000000100

 Mix parameter (when DIIS does not apply):           0.2000000000
 Special mix parameter for the first cycle:          1.0000000000
 Mixed ADIIS+DIIS will be used
    Max number of expansion vectors:                10
    Pure ADIIS when Max([F,P]) is above              0.1000000000
    Pure DIIS when Max([F,P]) is below               0.0010000000
 Automatic ElectronSmearing (in case of problematic SCF convergence) disabled



 =================
 P R E C I S I O N  ***  (General: NumInt, NeglectFunctionTails, ...)  ***
 =================
  

 NumInt:           Target precision:                12.0000000000
 -------           Initial precision:               10.0000000000
                   Min. precision (optimization):   10.0000000000

 Neglect Functions:          Basis functions:        0.1000000000E-13
 ------------------          Fit functions:          0.1000000000E-13



 ===========================
 L I N E A R   S C A L I N G
 ===========================
  

 Cut-off radii density fit:                        0.1000000000E-97
 Overlap cut-off criterion AO matrix elements:     0.1000000000E-97
 Cut-offs for Coulomb potential and fitted density:0.1000000000E-97
 Cut-off criterion for Coulomb multipole terms:    0.1000000000E-97
 Progressive Convergence parameter:                 0.000000000    
1
 ***************************************************************************************************



                                            ***************************
                                            *  C O M P U T A T I O N  *
                                            ***************************
  

 Number of elements of the density matrix on this node (used, total):        45        45



 ===========================================
 Numerical Integration : Fuzzy Cells (Becke)
 ===========================================
  
 Becke grid quality: VERYGOOD       
  
 Lebedev angular grid order:             min:  13 max:  41
 Nr. of radial points:                   min: 162 max: 162

 Total nr. of points:        162
 Nr. of blocks:                2
 Block length:                81
 Nr. of dummy points:          0


 Test of Precision of the Numerical Integration Grid
 ===================================================

 Integral of the Total Core Density:                   0.00000000000000



 =====
 S C F  ***  ScaSCF  ***
 =====
  

 CYCLE    1
 SCF Error: norm([F,P])=      0.000000000000, max([F,P])=      0.000000000000
 orbitals (Q,E):
 ---------------
 S :1...3            ( 1.00    -0.4995)  ( 0.00    -0.1236)  ( 0.00     0.4868)
 P :1...2            ( 0.00    -0.1049)  ( 0.00     0.5539)

 CYCLE    2
 SCF Error: norm([F,P])=      0.029156019618, max([F,P])=      0.027929007559
 orbitals (Q,E):
 ---------------
 S :1...2            ( 1.00    -0.2255)  ( 0.00     0.0335)
 P :1...1            ( 0.00     0.0898)

 CYCLE    3
  SDIIS (wt  0.000):  0.2069  0.7931
 A-DIIS (wt  1.000):  0.0000  1.0000
  DIIS coefficients:  0.0000  1.0000
 SCF Error: norm([F,P])=      0.007921670616, max([F,P])=      0.006309799357
 orbitals (Q,E):
 ---------------
 S :1...2            ( 1.00    -0.2430)  ( 0.00     0.0231)
 P :1...1            ( 0.00     0.0815)

 CYCLE    4
  SDIIS (wt  0.995):  0.1856  0.8144
 A-DIIS (wt  0.005):  0.0000  1.0000
  DIIS coefficients:  0.1847  0.8153
 SCF Error: norm([F,P])=      0.001808464813, max([F,P])=      0.001510706456
 orbitals (Q,E):
 ---------------
 S :1...2            ( 1.00    -0.2398)  ( 0.00     0.0241)
 P :1...1            ( 0.00     0.0827)

 CYCLE    5
  SDIIS (wt  1.000):  0.0121  0.9879
  DIIS coefficients:  0.0121  0.9879
 SCF Error: norm([F,P])=      0.000022299019, max([F,P])=      0.000016761924
 orbitals (Q,E):
 ---------------
 S :1...2            ( 1.00    -0.2398)  ( 0.00     0.0241)
 P :1...1            ( 0.00     0.0827)

 CYCLE    6
  SDIIS (wt  1.000): -0.0246  1.0246
  DIIS coefficients: -0.0246  1.0246
 SCF Error: norm([F,P])=      0.000000535718, max([F,P])=      0.000000408691
 orbitals (Q,E):
 ---------------
 S :1...2            ( 1.00    -0.2398)  ( 0.00     0.0241)
 P :1...1            ( 0.00     0.0827)

 CYCLE    7
  SDIIS (wt  1.000):  0.0036  0.9964
  DIIS coefficients:  0.0036  0.9964
 SCF Error: norm([F,P])=      0.000000001949, max([F,P])=      0.000000001516
 orbitals (Q,E):
 ---------------
 S :1...2            ( 1.00    -0.2398)  ( 0.00     0.0241)
 P :1...1            ( 0.00     0.0827)

 SCF CONVERGED

 CYCLE    8
1
 ***************************************************************************************************



                                                *******************
                                                *  R E S U L T S  *
                                                *******************
  
 *** Setting up for NEW gradients in Focky
 *** Using FIT density in Focky

 Orbital Energies, per Irrep and Spin:
 ======================================
                        Occup              E (au)              E (eV)       Diff (eV) with prev. cycle
                        -----      --------------------        ------       --------------------------
 S
               1        1.000     -0.23979804452700E+00        -6.525              -4.90E-10
               2        0.000      0.24106754268257E-01         0.656
               3        0.000      0.69129845502642E+00        18.811
 P
               1        0.000      0.82699663098524E-01         2.250
               2        0.000      0.80071383600085E+00        21.789


 Partially Occupied:
               1 S                -0.23979804452700E+00
  
 LUMO :        2 S                 0.24106754268257E-01
  


 Orbital Energies, all Irreps
 ========================================

 Irrep        no.  (spin)   Occup              E (au)                E (eV)
 ---------------------------------------------------------------------------
 S             1             1.00       -0.23979804452700E+00        -6.5252
 S             2             0.00        0.24106754268257E-01         0.6560
 P             1             0.00        0.82699663098524E-01         2.2504
 S             3             0.00        0.69129845502642E+00        18.8112
 P             2             0.00        0.80071383600085E+00        21.7885


 All Electron Calculation, thus no Orbital Energies of the Core Orbitals are calculated



 =======================================
 M U L L I K E N   P O P U L A T I O N S
 =======================================
  
 The survey below gives for each atom:
 a) the total charge (Z minus electrons)
 b) the net spin polarization (nr of electrons spin-A minus spin-B)
 c) for each spin the atomic electron valence density (integrated) per L-value.

 Atom              Charge    Spin density          S         P         D         F
 ----              ------    ------------       ------    ------    ------    ------
 1 H               0.0000                       1.0000    0.0000    0.0000    0.0000

 Populations of individual BAS functions
 ----------------------------------------
 1 H            0.6501  0.3579  0.0000  0.0000  0.0000  0.0000  0.0000  0.0000 -0.0080

 Gross Charges per Atom (Z minus electrons)
 ==========================================
             0.0000
 Net Total:  0.00000000



 ===============================================================================
 Electrostatic potential at the Nuclei due to valence electrons and other nuclei
 ===============================================================================
  
         Atom                  Potential
         ----                  ---------
     1)   H                   0.94857767
 
 
 ========================
 No memory problems found
 ========================
 
 Maximum number of active allocate calls:         293
 
 *******************************************************************************

                             A D F   E X I T
 NORMAL TERMINATION



 =================
 Timing Statistics
 =================
  
 Total Used :                     CPU=        0.32      System=        0.04     Elapsed=        1.13

 Calls  Section                     ( Mean, Percentage )
 ---------------------------------------------------------------------------------------------------
     3  ><      ................      0.00    1.00             0.00    3.76             0.00    0.72
     1  INIT    ................      0.06   18.87             0.01   16.04             0.74   65.68
     1  GEOMET  ................      0.03    8.07             0.02   41.53             0.06    4.86
     1  INPUTA  ................      0.00    1.13             0.00    4.55             0.01    0.49
     1  MAINSY  ................      0.01    3.98             0.00    1.79             0.02    2.06
     1  SYMFIT  ................      0.00    0.67             0.00    0.00             0.00    0.19
     1  CORORT  ................      0.00    0.42             0.00    0.00             0.00    0.29
     1  SYMORB  ................      0.00    0.31             0.00    0.00             0.00    0.18
     1  FITINT  ................      0.01    2.90             0.00    1.52             0.02    1.87
     1  CLSMAT  ................      0.00    0.67             0.00    0.00             0.00    0.34
     1  ORTHON  ................      0.01    1.92             0.00    2.25             0.01    0.79
     1  GENPT   ................      0.02    5.76             0.00    3.56             0.02    2.10
     1  PTBAS   ................      0.01    1.97             0.00    0.00             0.01    0.73
     8  FOCKY   ................      0.01   31.41             0.00    9.12             0.01   10.26
     8  FOCKTR  ................      0.00    1.49             0.00    3.83             0.00    0.56
     8  SDIIS   ................      0.00    8.59             0.00    4.42             0.01    4.04
     1  COREPS  ................      0.01    2.38             0.00    4.56             0.01    0.97
     1  POPAN   ................      0.01    1.91             0.00    0.48             0.01    0.73
     1  DEBYE   ................      0.00    0.73             0.00    0.00             0.00    0.37
     1  EXIT PROCEDURE .........      0.02    5.83             0.00    2.60             0.03    2.77


 Currently Open Files (EXIT00)
 ====================

 Unit    Access Format  Status   Type       Ident (file)
 -------------------------------------------------------
   3      SEQ    FORM   TRANSP  NORMAL      LOGFILE
                                          ( logfile )


 Buffered I/O statistics
 =======================
 Memory available:                     67108864
 Number of records fitting in memory:     16131
 Input :   0.4% of                        13614  *4k bytes
 Output:  28.4% of                          542  *4k bytes
 Records from serial files evicted:           0
                    others evicted:           0
 Hash table lookups:      28551 with          0 conflicts (  0.00%)

 ***************************************************************************************************
 (LOGFILE)
 <May20-2020> <08:41:14>  ADF 2018  RunTime: May20-2020 08:41:14  Nodes: 1  Procs: 1
 <May20-2020> <08:41:14>  Hydrogen (AUG-DZP)
 <May20-2020> <08:41:14>  RunType   : CREATE
 <May20-2020> <08:41:14>  Net Charge: 0 (Nuclei minus Electrons)
 <May20-2020> <08:41:14>  Symmetry  : ATOM
  Coordinates
    Atom         X           Y           Z   (Angstrom)
    1.H         0.000000    0.000000    0.000000
 <May20-2020> <08:41:14>  >>>> CORORT
 <May20-2020> <08:41:14>  >>>> FITINT
 <May20-2020> <08:41:14>  >>>> CLSMAT
 <May20-2020> <08:41:14>  >>>> ORTHON
 <May20-2020> <08:41:14>  >>>> GENPT
 <May20-2020> <08:41:14>  Block Length=  81
 <May20-2020> <08:41:14>  >>>> PTBAS
 <May20-2020> <08:41:14>  >>>> CYCLE
 <May20-2020> <08:41:14>              |Error|         MaxErr       Wt(A-DIIS)
 <May20-2020> <08:41:14>      1      0.00000000      0.00000000
 <May20-2020> <08:41:14>      2      0.02915602      0.02792901
 <May20-2020> <08:41:14>      3      0.00792167      0.00630980    100.0
 <May20-2020> <08:41:14>      4      0.00180846      0.00151071      0.5
 <May20-2020> <08:41:14>      5      0.00002230      0.00001676      0.0
 <May20-2020> <08:41:14>      6      0.00000054      0.00000041      0.0
 <May20-2020> <08:41:14>      7      0.00000000      0.00000000      0.0
 <May20-2020> <08:41:14>  SCF converged
 <May20-2020> <08:41:14>      8      0.00000000      0.00000000      0.0
 <May20-2020> <08:41:14>  >>>> POPAN
 <May20-2020> <08:41:14>  >>>> DEBYE
 <May20-2020> <08:41:14>  NORMAL TERMINATION
 <May20-2020> <08:41:14>  END
 
Create N   file=ADZP-N
 XC
   GGA BLYP
End
STOFIT

 *******************************************************************************
 *                                                                             *
 *  -------------------------------------                                      *
 *   Amsterdam Density Functional  (ADF)         2018                          *
 *  -------------------------------------                                      *
 *                                               r70630 2018-11-24             *
 *                                                                             *
 *                                                                             *
 *                              =================                              *
 *                              |               |                              *
 *                              |     A D F     |                              *
 *                              |               |                              *
 *                              =================                              *
 *                                                                             *
 *                                                                             *
 *   Online information and documentation:  https://www.scm.com/support/       *
 *   E-mail:  support@scm.com   info@scm.com                                   *
 *                                                                             *
 *   Scientific publications using ADF results must be properly referenced     *
 *   See the User Manuals (or the web site) for recommended citations          *
 *   The terms and conditions of the End User License Agreement apply to       *
 *   the use of ADF, https://www.scm.com/license-terms/                        *
 *                                                                             *
 **********************  x86_64_linux_intel / intelmpi  ************************
 
 Licensed to: Prof. Nazzareno Re / Facolta' di Farmacia Universita "G. d'Annunzio" / Chieti / IT
 SCM User ID: u7154
  
 ADF 2018  RunTime: May20-2020 08:41:15  Nodes: 1  Procs: 1

 Temporary files are created in /home/mdesantis/pybertha/psi4embedrt/short/jobtempdir/kid_0.1571926839

 Nitrogen (AUG-DZP)



 ===========================
 A T T A C H E D   F I L E S
 ===========================
  
 CREATE - Data File:    ADZP-N
                        Nitrogen (AUG-DZP)



 ===============================
 M O D E L   P A R A M E T E R S
 ===============================
  
 DENSITY FUNCTIONAL POTENTIAL (scf)
    LDA:                               Exchange only                           == Not Default ==
    Gradient Corrections:              Becke88 LYP                             == Not Default ==

 SPIN  (restricted / unrestr.)
    Molecule:                          Restricted                               

 OTHER ASPECTS
    Relativistic Corrections:          ---                                      

    Nuclear Charge Density Model:      Point Charge Nuclei                      
    Core Treatment:                    Frozen Orbital(s)                        

    Hyperfine or Zeeman Interaction:   ---                                      



 =====================================
 S Y M M E T R Y ,   E L E C T R O N S
 =====================================
  
 Symmetry: ATOM

 Irreducible Representations, including subspecies
 -------------------------------------------------
 S
 P:x  P:y  P:z
 D:z2  D:x2-y2  D:xy  D:xz  D:yz
 F:z3  F:z  F:xyz  F:z2x  F:z2y  F:x  F:y


 Configuration of Valence Electrons
 ==================================

          Occupation Numbers
          -------------------------------------------------
 S        2*2
 P        3
 D        0
 F        0
          -------------------------------------------------

 Total:   7

 Net Charge: 0 (Nuclei minus Electrons)

 Preset values for MO occupations will be applied through SCF cycle no. 1000000
 Thereafter, the program will assign electrons to MOs that are spatially
 similar to the occupied MOs in a "reference" cycle ("KeepOrbitals").
 The reference cycle is always the PREVIOUS cycle: it will evolve with
 the SCF procedure.



 ================================
 (Slater-type)  F U N C T I O N S  ***  (Basis and Fit)  ***
 ================================
  

 Atom Type    1  (N)
 ==============

 Valence Basis Sets:  10
 -----------------------
   1 S    8.740000
   1 S    5.900000
   2 S    1.460000
   2 S    2.380000
   2 P    2.580000
   2 P    1.120000
   3 D    2.200000
   3 D    0.870800
   4 S    0.921400
   2 P    0.564300

 Charge Fitting Sets (for the computation of the Coulomb Potential):  27
 -----------------------------------------------------------------------
   1 S   17.480000
   2 S   20.150000
   2 S   13.990000
   2 S    9.710000
   2 S    6.740000
   3 S    6.860000
   3 S    5.040000
   3 S    3.700000
   3 S    2.720000
   3 S    2.000000
   3 S    1.538000
   3 S    1.183000
   2 P   11.320000
   2 P    6.730000
   3 P    5.920000
   3 P    3.820000
   3 P    2.460000
   3 P    1.640000
   3 D    8.100000
   3 D    5.080000
   3 D    3.190000
   3 D    2.000000
   3 D    1.176000
   4 F    5.800000
   4 F    3.600000
   4 F    1.895000
   5 G    4.500000


 BAS: List of all Elementary Cartesian Basis Functions
 =====================================================

 The numbering in the list below (to the right of the function characteristics) is referred
 to in print-outs of MO eigenvectors and Mulliken populations in the BAS representation
 (as contrasted to the SFO representation).

 Notes:
 1. The functions are characterized by a polynomial prefactor (powers of x,y,z and r) and
    an exponential decay factor alpha.
 2. Since the basis sets are specific for an atom TYPE, the individual functions occur on
    all atoms of that type.
 3. The word 'Core' in the left margin signals that it is a Core Function (CF) : not a
    degree of freedom in the valence set, but only used to ensure orthogonalization of
    the other valence basis functions on the frozen Core Orbitals.


 (power of) X  Y  Z  R     Alpha  on Atom
            ==========     =====     ==========

 N                                    1
                                  ---------------------------------------------------------------------------
            0  0  0  0     8.740      1
            0  0  0  0     5.900      2
            0  0  0  1     1.460      3
            0  0  0  1     2.380      4
            1  0  0  0     2.580      5
            0  1  0  0     2.580      6
            0  0  1  0     2.580      7
            1  0  0  0     1.120      8
            0  1  0  0     1.120      9
            0  0  1  0     1.120     10
            2  0  0  0     2.200     11
            1  1  0  0     2.200     12
            1  0  1  0     2.200     13
            0  2  0  0     2.200     14
            0  1  1  0     2.200     15
            0  0  2  0     2.200     16
            2  0  0  0     0.871     17
            1  1  0  0     0.871     18
            1  0  1  0     0.871     19
            0  2  0  0     0.871     20
            0  1  1  0     0.871     21
            0  0  2  0     0.871     22
            0  0  0  3     0.921     23
            1  0  0  0     0.564     24
            0  1  0  0     0.564     25
            0  0  1  0     0.564     26

 Total number of charge fitting functions (nprimf)       105
 Total number of Cartesian basis functions (naos)         26
 Total number of Cartesian core functions  (ncos)          0



 BAS: List of all Elementary Cartesian Basis Functions
 =====================================================

 The numbering in the list below (to the right of the function characteristics) is referred
 to in print-outs of MO eigenvectors and Mulliken populations in the BAS representation
 (as contrasted to the SFO representation).

 Notes:
 1. The functions are characterized by a polynomial prefactor (powers of x,y,z and r) and
    an exponential decay factor alpha.
 2. Since the basis sets are specific for an atom TYPE, the individual functions occur on
    all atoms of that type.
 3. The word 'Core' in the left margin signals that it is a Core Function (CF) : not a
    degree of freedom in the valence set, but only used to ensure orthogonalization of
    the other valence basis functions on the frozen Core Orbitals.


 (power of) X  Y  Z  R     Alpha  on Atom
            ==========     =====     ==========

 N                                    1
                                  ---------------------------------------------------------------------------
            0  0  0  0     8.740      1
            0  0  0  0     5.900      2
            0  0  0  1     1.460      3
            0  0  0  1     2.380      4
            1  0  0  0     2.580      5
            0  1  0  0     2.580      6
            0  0  1  0     2.580      7
            1  0  0  0     1.120      8
            0  1  0  0     1.120      9
            0  0  1  0     1.120     10
            2  0  0  0     2.200     11
            1  1  0  0     2.200     12
            1  0  1  0     2.200     13
            0  2  0  0     2.200     14
            0  1  1  0     2.200     15
            0  0  2  0     2.200     16
            2  0  0  0     0.871     17
            1  1  0  0     0.871     18
            1  0  1  0     0.871     19
            0  2  0  0     0.871     20
            0  1  1  0     0.871     21
            0  0  2  0     0.871     22
            0  0  0  3     0.921     23
            1  0  0  0     0.564     24
            0  1  0  0     0.564     25
            0  0  1  0     0.564     26
1
 ***************************************************************************************************



                                              ***********************
                                              *  T E C H N I C A L  *
                                              ***********************
  



 =============================================================
 P A R A L L E L I Z A T I O N  and  V E C T O R I Z A T I O N
 =============================================================
  
 Nr of parallel processes:                                1
 Maximum vector length in NumInt loops:                 128

 IO buffersize (Mb):                                     64.000000



 =====================
 S C F   U P D A T E S
 =====================
  
 Max. nr. of cycles:                               300
 Convergence criterion:                              0.0000000100
   secondary criterion:                              0.0000000100

 Mix parameter (when DIIS does not apply):           0.2000000000
 Special mix parameter for the first cycle:          1.0000000000
 Mixed ADIIS+DIIS will be used
    Max number of expansion vectors:                10
    Pure ADIIS when Max([F,P]) is above              0.1000000000
    Pure DIIS when Max([F,P]) is below               0.0010000000
 Automatic ElectronSmearing (in case of problematic SCF convergence) disabled



 =================
 P R E C I S I O N  ***  (General: NumInt, NeglectFunctionTails, ...)  ***
 =================
  

 NumInt:           Target precision:                12.0000000000
 -------           Initial precision:               10.0000000000
                   Min. precision (optimization):   10.0000000000

 Neglect Functions:          Basis functions:        0.1000000000E-13
 ------------------          Fit functions:          0.1000000000E-13



 ===========================
 L I N E A R   S C A L I N G
 ===========================
  

 Cut-off radii density fit:                        0.1000000000E-97
 Overlap cut-off criterion AO matrix elements:     0.1000000000E-97
 Cut-offs for Coulomb potential and fitted density:0.1000000000E-97
 Cut-off criterion for Coulomb multipole terms:    0.1000000000E-97
 Progressive Convergence parameter:                 0.000000000    
1
 ***************************************************************************************************



                                            ***************************
                                            *  C O M P U T A T I O N  *
                                            ***************************
  

 Number of elements of the density matrix on this node (used, total):       351       351



 ===========================================
 Numerical Integration : Fuzzy Cells (Becke)
 ===========================================
  
 Becke grid quality: VERYGOOD       
  
 Lebedev angular grid order:             min:  13 max:  41
 Nr. of radial points:                   min: 123 max: 123

 Total nr. of points:        123
 Nr. of blocks:                1
 Block length:               123
 Nr. of dummy points:          0


 Test of Precision of the Numerical Integration Grid
 ===================================================

 Integral of the Total Core Density:                   0.00000000000000



 =====
 S C F  ***  ScaSCF  ***
 =====
  

 CYCLE    1
 SCF Error: norm([F,P])=      0.000000000000, max([F,P])=      0.000000000000
 orbitals (Q,E):
 ---------------
 S :1...5            ( 2.00   -24.4868)  ( 2.00    -6.0122)  ( 0.00    -2.6389)  ( 0.00    -1.2807)
                     ( 0.00    20.6274)
 P :1...3            ( 3.00    -5.8388)  ( 0.00    -2.4792)  ( 0.00    -1.1752)
 D :1...2            ( 0.00    -2.7151)  ( 0.00    -1.3810)

 CYCLE    2
  SDIIS (wt  0.000):  1.0000  0.0000
 A-DIIS (wt  1.000):  0.0000  1.0000
  DIIS coefficients:  0.0000  1.0000
 SCF Error: norm([F,P])=      4.765383950334, max([F,P])=      2.977561187492
 orbitals (Q,E):
 ---------------
 S :1...3            ( 2.00   -11.9902)  ( 2.00    -0.1573)  ( 0.00     0.0898)
 P :1...2            ( 3.00     0.0408)  ( 0.00     0.2800)
 D :1...1            ( 0.00     0.2589)

 CYCLE    3
  SDIIS (wt  0.000):  0.2604  0.7396
 A-DIIS (wt  1.000):  0.5315  0.4685
  DIIS coefficients:  0.5315  0.4685
 SCF Error: norm([F,P])=      2.202330528600, max([F,P])=      1.348883292280
 orbitals (Q,E):
 ---------------
 S :1...3            ( 2.00   -14.2391)  ( 2.00    -0.9687)  ( 0.00    -0.0712)
 P :1...2            ( 3.00    -0.5355)  ( 0.00    -0.0128)
 D :1...1            ( 0.00     0.0981)

 CYCLE    4
  SDIIS (wt  0.000):  0.0296  0.0418  0.9286
 A-DIIS (wt  1.000):  0.0000  0.0000  1.0000
  DIIS coefficients:  0.0000  0.0000  1.0000
 SCF Error: norm([F,P])=      0.228227507341, max([F,P])=      0.139529685507
 orbitals (Q,E):
 ---------------
 S :1...3            ( 2.00   -14.0431)  ( 2.00    -0.6159)  ( 0.00     0.0188)
 P :1...2            ( 3.00    -0.1985)  ( 0.00     0.0746)
 D :1...1            ( 0.00     0.2131)

 CYCLE    5
  SDIIS (wt  0.059):  0.0166 -0.0163  0.3703  0.6294
 A-DIIS (wt  0.941):  0.0000  0.0000  0.4681  0.5319
  DIIS coefficients:  0.0010 -0.0010  0.4624  0.5376
 SCF Error: norm([F,P])=      0.176606383311, max([F,P])=      0.094146639757
 orbitals (Q,E):
 ---------------
 S :1...3            ( 2.00   -14.1959)  ( 2.00    -0.6851)  ( 0.00     0.0064)
 P :1...2            ( 3.00    -0.2630)  ( 0.00     0.0601)
 D :1...1            ( 0.00     0.2011)

 CYCLE    6
  SDIIS (wt  0.830):  0.0000  0.0001  0.0465  0.1367  0.8166
 A-DIIS (wt  0.170):  0.0000  0.0000  0.0000  0.0000  1.0000
  DIIS coefficients:  0.0000  0.0001  0.0386  0.1135  0.8478
 SCF Error: norm([F,P])=      0.027248713626, max([F,P])=      0.017823048680
 orbitals (Q,E):
 ---------------
 S :1...3            ( 2.00   -14.1667)  ( 2.00    -0.6775)  ( 0.00     0.0061)
 P :1...2            ( 3.00    -0.2559)  ( 0.00     0.0601)
 D :1...1            ( 0.00     0.2008)

 CYCLE    7
  SDIIS (wt  0.982):  0.0000  0.0001  0.0006 -0.0154  0.0703  0.9445
 A-DIIS (wt  0.018):  0.0000  0.0000  0.0000  0.0000  0.0000  1.0000
  DIIS coefficients:  0.0000  0.0001  0.0006 -0.0151  0.0690  0.9455
 SCF Error: norm([F,P])=      0.004744131206, max([F,P])=      0.002817220064
 orbitals (Q,E):
 ---------------
 S :1...3            ( 2.00   -14.1707)  ( 2.00    -0.6790)  ( 0.00     0.0060)
 P :1...2            ( 3.00    -0.2574)  ( 0.00     0.0600)
 D :1...1            ( 0.00     0.2007)

 CYCLE    8
  SDIIS (wt  1.000): -0.0000 -0.0000  0.0001  0.0004 -0.0004  0.0049  0.9950
  DIIS coefficients: -0.0000 -0.0000  0.0001  0.0004 -0.0004  0.0049  0.9950
 SCF Error: norm([F,P])=      0.000101860522, max([F,P])=      0.000064033453
 orbitals (Q,E):
 ---------------
 S :1...3            ( 2.00   -14.1706)  ( 2.00    -0.6790)  ( 0.00     0.0060)
 P :1...2            ( 3.00    -0.2573)  ( 0.00     0.0600)
 D :1...1            ( 0.00     0.2006)

 CYCLE    9
  SDIIS (wt  1.000):  0.0000  0.0000 -0.0000 -0.0000 -0.0005 -0.0065  1.0070
  DIIS coefficients:  0.0000  0.0000 -0.0000 -0.0000 -0.0005 -0.0065  1.0070
 SCF Error: norm([F,P])=      0.000001753165, max([F,P])=      0.000000857085
 orbitals (Q,E):
 ---------------
 S :1...3            ( 2.00   -14.1706)  ( 2.00    -0.6790)  ( 0.00     0.0060)
 P :1...2            ( 3.00    -0.2573)  ( 0.00     0.0600)
 D :1...1            ( 0.00     0.2006)

 CYCLE   10
  SDIIS (wt  1.000): -0.0000 -0.0001  0.0069  0.9931
  DIIS coefficients: -0.0000 -0.0001  0.0069  0.9931
 SCF Error: norm([F,P])=      0.000000010018, max([F,P])=      0.000000004755
 orbitals (Q,E):
 ---------------
 S :1...3            ( 2.00   -14.1706)  ( 2.00    -0.6790)  ( 0.00     0.0060)
 P :1...2            ( 3.00    -0.2573)  ( 0.00     0.0600)
 D :1...1            ( 0.00     0.2006)

 SCF CONVERGED

 CYCLE   11
1
 ***************************************************************************************************



                                                *******************
                                                *  R E S U L T S  *
                                                *******************
  
 *** Setting up for NEW gradients in Focky
 *** Using FIT density in Focky

 Orbital Energies, per Irrep and Spin:
 ======================================
                        Occup              E (au)              E (eV)       Diff (eV) with prev. cycle
                        -----      --------------------        ------       --------------------------
 S
               1        2.000     -0.14170581401694E+02      -385.601              -9.85E-09
               2        2.000     -0.67899644509777E+00       -18.476              -7.73E-09
               3        0.000      0.59642508184901E-02         0.162
               4        0.000      0.83318067035224E+00        22.672
               5        0.000      0.29631419916117E+02       806.312
 P
               1        3.000     -0.25733557694475E+00        -7.002              -7.30E-09
               2        0.000      0.60001129984456E-01         1.633
               3        0.000      0.81676286467025E+00        22.225
 D
               1        0.000      0.20064741528540E+00         5.460
               2        0.000      0.14609237588448E+01        39.754


 Partially Occupied:
               1 P                -0.25733557694475E+00
  
 HOMO :        2 S                -0.67899644509777E+00
 LUMO :        3 S                 0.59642508184901E-02
  


 Orbital Energies, all Irreps
 ========================================

 Irrep        no.  (spin)   Occup              E (au)                E (eV)
 ---------------------------------------------------------------------------
 S             1             2.00       -0.14170581401694E+02      -385.6011
 S             2             2.00       -0.67899644509777E+00       -18.4764
 P             1             3.00       -0.25733557694475E+00        -7.0025
 S             3             0.00        0.59642508184901E-02         0.1623
 P             2             0.00        0.60001129984456E-01         1.6327
 D             1             0.00        0.20064741528540E+00         5.4599
 P             3             0.00        0.81676286467025E+00        22.2252
 S             4             0.00        0.83318067035224E+00        22.6720
 D             2             0.00        0.14609237588448E+01        39.7538
 S             5             0.00        0.29631419916117E+02       806.3120


 All Electron Calculation, thus no Orbital Energies of the Core Orbitals are calculated



 =======================================
 M U L L I K E N   P O P U L A T I O N S
 =======================================
  
 The survey below gives for each atom:
 a) the total charge (Z minus electrons)
 b) the net spin polarization (nr of electrons spin-A minus spin-B)
 c) for each spin the atomic electron valence density (integrated) per L-value.

 Atom              Charge    Spin density          S         P         D         F
 ----              ------    ------------       ------    ------    ------    ------
 1 N               0.0000                       4.0000    3.0000    0.0000    0.0000

 Populations of individual BAS functions
 ----------------------------------------
 1 N            0.5168  1.4629  0.7855  1.2355  0.5052  0.5052  0.5052  0.4962  0.4962  0.4962
                0.0000  0.0000  0.0000  0.0000  0.0000  0.0000  0.0000  0.0000  0.0000  0.0000
                0.0000  0.0000 -0.0007 -0.0014 -0.0014 -0.0014

 Gross Charges per Atom (Z minus electrons)
 ==========================================
             0.0000
 Net Total:  0.00000000



 ===============================================================================
 Electrostatic potential at the Nuclei due to valence electrons and other nuclei
 ===============================================================================
  
         Atom                  Potential
         ----                  ---------
     1)   N                  18.27274073
 
 
 ========================
 No memory problems found
 ========================
 
 Maximum number of active allocate calls:         353
 
 *******************************************************************************

                             A D F   E X I T
 NORMAL TERMINATION



 =================
 Timing Statistics
 =================
  
 Total Used :                     CPU=        0.37      System=        0.06     Elapsed=        1.16

 Calls  Section                     ( Mean, Percentage )
 ---------------------------------------------------------------------------------------------------
     3  ><      ................      0.00    1.87             0.00    1.50             0.00    1.06
     1  INIT    ................      0.06   15.80             0.01   11.18             0.68   58.39
     1  GEOMET  ................      0.02    6.38             0.02   34.10             0.06    4.97
     1  INPUTA  ................      0.01    1.92             0.00    0.00             0.01    0.60
     1  MAINSY  ................      0.02    4.12             0.00    0.46             0.03    2.31
     1  SYMFIT  ................      0.00    0.03             0.00    3.35             0.00    0.18
     1  CORORT  ................      0.00    0.21             0.00    1.14             0.00    0.32
     1  SYMORB  ................      0.00    0.30             0.00    0.04             0.00    0.19
     1  FITINT  ................      0.01    2.16             0.00    6.27             0.02    2.11
     1  CLSMAT  ................      0.00    0.58             0.00    0.11             0.00    0.38
     1  ORTHON  ................      0.01    2.03             0.00    1.31             0.01    0.87
     1  GENPT   ................      0.02    6.45             0.00    1.53             0.03    2.52
     1  PTBAS   ................      0.01    1.76             0.00    0.13             0.01    0.76
    11  FOCKY   ................      0.01   32.96             0.00   24.23             0.01   13.11
    11  FOCKTR  ................      0.00    2.62             0.00    1.76             0.00    0.92
    11  SDIIS   ................      0.00   10.42             0.00    8.36             0.01    6.11
     1  COREPS  ................      0.01    2.20             0.00    2.93             0.01    0.99
     1  POPAN   ................      0.01    2.00             0.00    0.11             0.01    0.84
     1  DEBYE   ................      0.00    0.70             0.00    0.00             0.00    0.42
     1  EXIT PROCEDURE .........      0.02    5.49             0.00    1.50             0.03    2.95


 Currently Open Files (EXIT00)
 ====================

 Unit    Access Format  Status   Type       Ident (file)
 -------------------------------------------------------
   3      SEQ    FORM   TRANSP  NORMAL      LOGFILE
                                          ( logfile )


 Buffered I/O statistics
 =======================
 Memory available:                     67108864
 Number of records fitting in memory:     16131
 Input :   0.3% of                        22191  *4k bytes
 Output:  25.3% of                          708  *4k bytes
 Records from serial files evicted:           0
                    others evicted:           0
 Hash table lookups:      42896 with          0 conflicts (  0.00%)

 ***************************************************************************************************
 (LOGFILE)
 <May20-2020> <08:41:14>  ADF 2018  RunTime: May20-2020 08:41:14  Nodes: 1  Procs: 1
 <May20-2020> <08:41:14>  Hydrogen (AUG-DZP)
 <May20-2020> <08:41:14>  RunType   : CREATE
 <May20-2020> <08:41:14>  Net Charge: 0 (Nuclei minus Electrons)
 <May20-2020> <08:41:14>  Symmetry  : ATOM
  Coordinates
    Atom         X           Y           Z   (Angstrom)
    1.H         0.000000    0.000000    0.000000
 <May20-2020> <08:41:14>  >>>> CORORT
 <May20-2020> <08:41:14>  >>>> FITINT
 <May20-2020> <08:41:14>  >>>> CLSMAT
 <May20-2020> <08:41:14>  >>>> ORTHON
 <May20-2020> <08:41:14>  >>>> GENPT
 <May20-2020> <08:41:14>  Block Length=  81
 <May20-2020> <08:41:14>  >>>> PTBAS
 <May20-2020> <08:41:14>  >>>> CYCLE
 <May20-2020> <08:41:14>              |Error|         MaxErr       Wt(A-DIIS)
 <May20-2020> <08:41:14>      1      0.00000000      0.00000000
 <May20-2020> <08:41:14>      2      0.02915602      0.02792901
 <May20-2020> <08:41:14>      3      0.00792167      0.00630980    100.0
 <May20-2020> <08:41:14>      4      0.00180846      0.00151071      0.5
 <May20-2020> <08:41:14>      5      0.00002230      0.00001676      0.0
 <May20-2020> <08:41:14>      6      0.00000054      0.00000041      0.0
 <May20-2020> <08:41:14>      7      0.00000000      0.00000000      0.0
 <May20-2020> <08:41:14>  SCF converged
 <May20-2020> <08:41:14>      8      0.00000000      0.00000000      0.0
 <May20-2020> <08:41:14>  >>>> POPAN
 <May20-2020> <08:41:14>  >>>> DEBYE
 <May20-2020> <08:41:14>  NORMAL TERMINATION
 <May20-2020> <08:41:14>  END
 <May20-2020> <08:41:15>  ADF 2018  RunTime: May20-2020 08:41:15  Nodes: 1  Procs: 1
 <May20-2020> <08:41:15>  Nitrogen (AUG-DZP)
 <May20-2020> <08:41:15>  RunType   : CREATE
 <May20-2020> <08:41:15>  Net Charge: 0 (Nuclei minus Electrons)
 <May20-2020> <08:41:15>  Symmetry  : ATOM
  Coordinates
    Atom         X           Y           Z   (Angstrom)
    1.N         0.000000    0.000000    0.000000
 <May20-2020> <08:41:15>  >>>> CORORT
 <May20-2020> <08:41:15>  >>>> FITINT
 <May20-2020> <08:41:15>  >>>> CLSMAT
 <May20-2020> <08:41:15>  >>>> ORTHON
 <May20-2020> <08:41:15>  >>>> GENPT
 <May20-2020> <08:41:15>  Block Length= 123
 <May20-2020> <08:41:15>  >>>> PTBAS
 <May20-2020> <08:41:15>  >>>> CYCLE
 <May20-2020> <08:41:15>              |Error|         MaxErr       Wt(A-DIIS)
 <May20-2020> <08:41:15>      1      0.00000000      0.00000000
 <May20-2020> <08:41:15>      2      4.76538395      2.97756119    100.0
 <May20-2020> <08:41:15>      3      2.20233053      1.34888329    100.0
 <May20-2020> <08:41:15>      4      0.22822751      0.13952969    100.0
 <May20-2020> <08:41:15>      5      0.17660638      0.09414664     94.1
 <May20-2020> <08:41:15>      6      0.02724871      0.01782305     17.0
 <May20-2020> <08:41:15>      7      0.00474413      0.00281722      1.8
 <May20-2020> <08:41:15>      8      0.00010186      0.00006403      0.0
 <May20-2020> <08:41:15>      9      0.00000175      0.00000086      0.0
 <May20-2020> <08:41:15>     10      0.00000001      0.00000000      0.0
 <May20-2020> <08:41:15>  SCF converged
 <May20-2020> <08:41:15>     11      0.00000000      0.00000000      0.0
 <May20-2020> <08:41:15>  >>>> POPAN
 <May20-2020> <08:41:15>  >>>> DEBYE
 <May20-2020> <08:41:15>  NORMAL TERMINATION
 <May20-2020> <08:41:15>  END


 Parallel Execution: Process Information
 ==============================================================================
 Rank   Node Name                              NodeID   MyNodeRank  NodeMaster
    0   bwmcc19                                   0          0          0
    1   bwmcc19                                   0          1         -1
    2   bwmcc19                                   0          2         -1
    3   bwmcc19                                   0          3         -1
    4   bwmcc19                                   0          4         -1
    5   bwmcc19                                   0          5         -1
    6   bwmcc19                                   0          6         -1
    7   bwmcc19                                   0          7         -1
    8   bwmcc19                                   0          8         -1
    9   bwmcc19                                   0          9         -1
   10   bwmcc19                                   0         10         -1
   11   bwmcc19                                   0         11         -1
   12   bwmcc19                                   0         12         -1
   13   bwmcc19                                   0         13         -1
   14   bwmcc19                                   0         14         -1
   15   bwmcc19                                   0         15         -1
 ==============================================================================


May use up to 61371MB of RAM as shared memory on node 0
 
Title Input generated by PyADF

 ATOMS
         N       -1.39559       -0.02156        0.00004
         H       -1.62981        0.96110       -0.10622
         H       -1.86277       -0.51254       -0.75597
         H       -1.83355       -0.33077        0.86231
 END

 UNITS
   Length Angstrom
   Angle Degree
 END

 CHARGE 0

 SYMMETRY NOSYM tol=1e-2

 XC
   GGA BLYP
 END

 INTEGRATION
  accint  4.0
 END

 SCF
   iterations  100
   converge 1.0e-08 1.0e-08
 END

STOFIT

 SAVE TAPE21  TAPE10

 EPRINT
   SFO NOEIG NOOVL NOORBPOP
   SCF NOPOP
 END

 NOPRINT BAS FUNCTIONS

 GEOMETRY
   sp
 END

 NOSYMFIT

Fragments
H t21.H
N t21.N
End

 *******************************************************************************
 *                                                                             *
 *  -------------------------------------                                      *
 *   Amsterdam Density Functional  (ADF)         2018                          *
 *  -------------------------------------                                      *
 *                                               r70630 2018-11-24             *
 *                                                                             *
 *                                                                             *
 *                              =================                              *
 *                              |               |                              *
 *                              |     A D F     |                              *
 *                              |               |                              *
 *                              =================                              *
 *                                                                             *
 *                                                                             *
 *   Online information and documentation:  https://www.scm.com/support/       *
 *   E-mail:  support@scm.com   info@scm.com                                   *
 *                                                                             *
 *   Scientific publications using ADF results must be properly referenced     *
 *   See the User Manuals (or the web site) for recommended citations          *
 *   The terms and conditions of the End User License Agreement apply to       *
 *   the use of ADF, https://www.scm.com/license-terms/                        *
 *                                                                             *
 **********************  x86_64_linux_intel / intelmpi  ************************
 
 Licensed to: Prof. Nazzareno Re / Facolta' di Farmacia Universita "G. d'Annunzio" / Chieti / IT
 SCM User ID: u7154
  
 ADF 2018  RunTime: May20-2020 08:41:17  Nodes: 1  Procs: 16

 Temporary files are created in /home/mdesantis/pybertha/psi4embedrt/short/jobtempdir/kid_0.315175886


Communication costs MPI_COMM_WORLD:     -2.091 usec per message,   0.0397 usec per 8-byte item
Communication costs for intra-node:     -2.035 usec per message,   0.0397 usec per 8-byte item

 Input generated by PyADF



 ===========================
 A T T A C H E D   F I L E S
 ===========================
  



 ===============================
 M O D E L   P A R A M E T E R S
 ===============================
  
 DENSITY FUNCTIONAL POTENTIAL (scf)
    LDA:                               Exchange only                           == Not Default ==
    Gradient Corrections:              Becke88 LYP                             == Not Default ==

 SPIN  (restricted / unrestr.)
    Molecule:                          Restricted                               
    Fragments:                         Restricted                               

 OTHER ASPECTS
    Relativistic Corrections:          ---                                      

    Nuclear Charge Density Model:      Point Charge Nuclei                      
    Core Treatment:                    Frozen Orbital(s)                        

    Hyperfine or Zeeman Interaction:   ---                                      


 Fragment File(s)
 ----------------
 N:
         file : t21.N
         jobid: ADF 2018  RunTime: May20-2020 08:41:15  Nodes: 1  Procs: 1
         title: Nitrogen (AUG-DZP)
 H:
         file : t21.H
         jobid: ADF 2018  RunTime: May20-2020 08:41:14  Nodes: 1  Procs: 1
         title: Hydrogen (AUG-DZP)



                                        ************************************
                                        *  R U N   T Y P E : SINGLE POINT  *
                                        ************************************
  



 ===============
 G E O M E T R Y  ***  3D  Molecule  ***
 ===============
  

 ATOMS
 =====                            X Y Z                    CHARGE
                                (Angstrom)             Nucl     +Core       At.Mass
                       --------------------------    ----------------       -------
    1  N              -1.3956   -0.0216    0.0000      7.00      7.00       14.0031
    2  H              -1.6298    0.9611   -0.1062      1.00      1.00        1.0078
    3  H              -1.8628   -0.5125   -0.7560      1.00      1.00        1.0078
    4  H              -1.8335   -0.3308    0.8623      1.00      1.00        1.0078


 FRAGMENTS
 =========                                     Atoms in this Fragment     Cart. coord.s (Angstrom)
                                               -------------------------------------------------------
    1  N                                                 1  N           -1.3956   -0.0216    0.0000
    2  H                                                 2  H           -1.6298    0.9611   -0.1062
    3  H                                                 3  H           -1.8628   -0.5125   -0.7560
    4  H                                                 4  H           -1.8335   -0.3308    0.8623


 Interatomic Distance Matrix (Angstrom)
 --------------------------------------

   1)     0.000
   2)     1.016   0.000
   3)     1.015   1.627   0.000
   4)     1.015   1.627   1.629   0.000

 Min. Distance =    1.0153
 Max. Distance =    1.6287



 =====================================
 S Y M M E T R Y ,   E L E C T R O N S
 =====================================
  
 Symmetry: NOSYM

 Irreducible Representations, including subspecies
 -------------------------------------------------
 A


 Configuration of Valence Electrons
 ==================================
 ( determined in the SCF procedure )

 Total:   10

 Net Charge: 0 (Nuclei minus Electrons)

 Aufbau principle for MO occupations will be applied through SCF cycle no.      50
 Thereafter, the program will assign electrons to MOs that are spatially
 similar to the occupied MOs in a "reference" cycle ("KeepOrbitals").
 The reference cycle is always the PREVIOUS cycle: it will evolve with
 the SCF procedure.



 =======
 S F O s  ***  (Symmetrized Fragment Orbitals)  ***
 =======
  
 SFOs are linear combinations of (valence) Fragment Orbitals (FOs), such that the SFOs transform as the
 irreducible representations of the (molecular) symmetry group. Each SFO is therefore characterized by
 an irrep of the molecule and by a few (or only one) generating FOs.
 The SFOs constitute a symmetry-adapted basis for the Fock matrix. The MO eigenvector coefficients in
 this basis provide a direct interpretation of the MOs in terms of Frontier Orbital Theory.

 The SFOs are combined with auxiliary Core Functions (CFs) to ensure orthogonalization on the (frozen)
 Core Orbitals (COs). The Core-orthogonalized SFOs (CSFOs) constitute the true Fock basis.

 The FOs, and hence also the (C)SFOs are combinations of the elementary basis functions (BAS). The basis
 functions that participate in the description of the SFOs depend on the irrep. The indices of the
 involved functions are printed below for each irrep.
 (The complete list of primitive basis functions is printed in another section)

 Total nr. of (C)SFOs (summation over all irreps) :    51

 NOTE: a (C)SFO that is defined as a combination of more than one FO is usually NOT normalized.



                                       === A ===
 Nr. of SFOs :   51
 Cartesian basis functions that participate in this irrep (total number =    53) :
      1     2     3     4    23     5     8    24     6     9
     25     7    10    26    11    17    12    18    13    19
     14    20    15    21    16    22    27    28    35    29
     32    30    33    31    34    36    37    44    38    41
     39    42    40    43    45    46    53    47    50    48
     51    49    52

    SFO  (index         Fragment          Generating    Expansion in Fragment Orbitals
  indx  incl.CFs)   Occup   Orb.Energy   FragmentType  Coeff.   Orbital     on Fragment
 --------------------------------------------------------------------------------------
     1       1      2.000     -14.171 au  N             1.00      1 S               1
                        (    -385.601 eV)
     2       2      2.000      -0.679 au  N             1.00      2 S               1
                        (     -18.476 eV)
     3       3       --         0.006 au  N             1.00      3 S               1
                        (       0.162 eV)
     4       4       --         0.833 au  N             1.00      4 S               1
                        (      22.672 eV)
     5       5       --        29.631 au  N             1.00      5 S               1
                        (     806.312 eV)
     6       6      1.000      -0.257 au  N             1.00      1 P:x             1
                        (      -7.002 eV)
     7       7       --         0.060 au  N             1.00      2 P:x             1
                        (       1.633 eV)
     8       8       --         0.817 au  N             1.00      3 P:x             1
                        (      22.225 eV)
     9       9      1.000      -0.257 au  N             1.00      1 P:y             1
                        (      -7.002 eV)
    10      10       --         0.060 au  N             1.00      2 P:y             1
                        (       1.633 eV)
    11      11       --         0.817 au  N             1.00      3 P:y             1
                        (      22.225 eV)
    12      12      1.000      -0.257 au  N             1.00      1 P:z             1
                        (      -7.002 eV)
    13      13       --         0.060 au  N             1.00      2 P:z             1
                        (       1.633 eV)
    14      14       --         0.817 au  N             1.00      3 P:z             1
                        (      22.225 eV)
    15      15       --         0.201 au  N             1.00      1 D:z2            1
                        (       5.460 eV)
    16      16       --         1.461 au  N             1.00      2 D:z2            1
                        (      39.754 eV)
    17      17       --         0.201 au  N             1.00      1 D:x2-y2         1
                        (       5.460 eV)
    18      18       --         1.461 au  N             1.00      2 D:x2-y2         1
                        (      39.754 eV)
    19      19       --         0.201 au  N             1.00      1 D:xy            1
                        (       5.460 eV)
    20      20       --         1.461 au  N             1.00      2 D:xy            1
                        (      39.754 eV)
    21      21       --         0.201 au  N             1.00      1 D:xz            1
                        (       5.460 eV)
    22      22       --         1.461 au  N             1.00      2 D:xz            1
                        (      39.754 eV)
    23      23       --         0.201 au  N             1.00      1 D:yz            1
                        (       5.460 eV)
    24      24       --         1.461 au  N             1.00      2 D:yz            1
                        (      39.754 eV)
    25      25      1.000      -0.240 au  H             1.00      1 S               2
                        (      -6.525 eV)
    26      26       --         0.024 au  H             1.00      2 S               2
                        (       0.656 eV)
    27      27       --         0.691 au  H             1.00      3 S               2
                        (      18.811 eV)
    28      28       --         0.083 au  H             1.00      1 P:x             2
                        (       2.250 eV)
    29      29       --         0.801 au  H             1.00      2 P:x             2
                        (      21.789 eV)
    30      30       --         0.083 au  H             1.00      1 P:y             2
                        (       2.250 eV)
    31      31       --         0.801 au  H             1.00      2 P:y             2
                        (      21.789 eV)
    32      32       --         0.083 au  H             1.00      1 P:z             2
                        (       2.250 eV)
    33      33       --         0.801 au  H             1.00      2 P:z             2
                        (      21.789 eV)
    34      34      1.000      -0.240 au  H             1.00      1 S               3
                        (      -6.525 eV)
    35      35       --         0.024 au  H             1.00      2 S               3
                        (       0.656 eV)
    36      36       --         0.691 au  H             1.00      3 S               3
                        (      18.811 eV)
    37      37       --         0.083 au  H             1.00      1 P:x             3
                        (       2.250 eV)
    38      38       --         0.801 au  H             1.00      2 P:x             3
                        (      21.789 eV)
    39      39       --         0.083 au  H             1.00      1 P:y             3
                        (       2.250 eV)
    40      40       --         0.801 au  H             1.00      2 P:y             3
                        (      21.789 eV)
    41      41       --         0.083 au  H             1.00      1 P:z             3
                        (       2.250 eV)
    42      42       --         0.801 au  H             1.00      2 P:z             3
                        (      21.789 eV)
    43      43      1.000      -0.240 au  H             1.00      1 S               4
                        (      -6.525 eV)
    44      44       --         0.024 au  H             1.00      2 S               4
                        (       0.656 eV)
    45      45       --         0.691 au  H             1.00      3 S               4
                        (      18.811 eV)
    46      46       --         0.083 au  H             1.00      1 P:x             4
                        (       2.250 eV)
    47      47       --         0.801 au  H             1.00      2 P:x             4
                        (      21.789 eV)
    48      48       --         0.083 au  H             1.00      1 P:y             4
                        (       2.250 eV)
    49      49       --         0.801 au  H             1.00      2 P:y             4
                        (      21.789 eV)
    50      50       --         0.083 au  H             1.00      1 P:z             4
                        (       2.250 eV)
    51      51       --         0.801 au  H             1.00      2 P:z             4
                        (      21.789 eV)

 Total number of charge fitting functions (nprimf)       318
 Total number of Cartesian basis functions (naos)         53
 Total number of Cartesian core functions  (ncos)          0

1
 ***************************************************************************************************



                                              ***********************
                                              *  T E C H N I C A L  *
                                              ***********************
  



 =============================================================
 P A R A L L E L I Z A T I O N  and  V E C T O R I Z A T I O N
 =============================================================
  
 Nr of parallel processes:                               16
 Maximum vector length in NumInt loops:                 128

 IO buffersize (Mb):                                     64.000000



 =====================
 S C F   U P D A T E S
 =====================
  
 Max. nr. of cycles:                               100
 Convergence criterion:                              0.0000000100
   secondary criterion:                              0.0000000100

 Mix parameter (when DIIS does not apply):           0.2000000000
 Mixed ADIIS+DIIS will be used
    Max number of expansion vectors:                10
    Pure ADIIS when Max([F,P]) is above              0.1000000000
    Pure DIIS when Max([F,P]) is below               0.0010000000
 Automatic ElectronSmearing (in case of problematic SCF convergence) disabled



 =================
 P R E C I S I O N  ***  (General: NumInt, NeglectFunctionTails, ...)  ***
 =================
  

 NumInt:           Target precision:                 4.0000000000
 -------           Initial precision:                4.0000000000
                   Min. precision (optimization):    4.0000000000

 Neglect Functions:          Basis functions:        0.1000000000E-05
 ------------------          Fit functions:          0.1000000000E-05



 ===========================
 L I N E A R   S C A L I N G
 ===========================
  

 Cut-off radii density fit:                        0.1000000000E-07
 Overlap cut-off criterion AO matrix elements:     0.1000000000E-05
 Cut-offs for Coulomb potential and fitted density:0.1000000000E-07
 Cut-off criterion for Coulomb multipole terms:    0.1000000000E-07
 Progressive Convergence parameter:                 0.000000000    
1
 ***************************************************************************************************



                                            ***************************
                                            *  C O M P U T A T I O N  *
                                            ***************************
  

 Number of elements of the density matrix on this node (used, total):       351      1431



 ====================================================
 Numerical Integration : Voronoi Polyhedra (Te Velde)
 ====================================================
  
 General Accuracy Parameter :                          4.00

 Symmetry used in the points section:  NOSYM 


 Summary of the Symmetry Unique Points:
 --------------------------------------
    Nr. of used Symmetry Operators                     1

    Points in the Atomic Spheres                    1300
    Points in the Atomic Polyhedra                 11606
    Points in the Outer Region                      5189
    ----------------------------------------------------
    Total                                          18095

    Sum of Weights                                 44860.421076

 Total nr. of points:      18095
 Nr. of blocks:              142
 Block length:               128
 Nr. of dummy points:         81


 Test of Precision of the Numerical Integration Grid
 ===================================================

 Integral of the Total Core Density:                   0.00000000000000



 =====
 S C F  ***  ScaSCF  ***
 =====
  
 Initial density matrix is calculated as sum of fragments

 CYCLE    1
 SCF Error: norm([F,P])=      2.545524794934, max([F,P])=      1.256068319684
 orbitals (Q,E):
 ---------------
 A :1...15           ( 2.00   -14.3079)  ( 2.00    -0.9733)  ( 2.00    -0.5917)  ( 2.00    -0.5912)
                     ( 2.00    -0.4186)  ( 0.00    -0.0691)  ( 0.00    -0.0093)  ( 0.00    -0.0092)
                     ( 0.00     0.0222)  ( 0.00     0.0386)  ( 0.00     0.0505)  ( 0.00     0.0506)
                     ( 0.00     0.0777)  ( 0.00     0.0778)  ( 0.00     0.1183)

 CYCLE    2
  SDIIS (wt  0.000):  0.1357  0.8643
 A-DIIS (wt  1.000):  0.7086  0.2914
  DIIS coefficients:  0.7086  0.2914
 SCF Error: norm([F,P])=      0.895787143915, max([F,P])=      0.335386723345
 orbitals (Q,E):
 ---------------
 A :1...6            ( 2.00   -14.0410)  ( 2.00    -0.8459)  ( 2.00    -0.4788)  ( 2.00    -0.4783)
                     ( 2.00    -0.2866)  ( 0.00    -0.0441)

 CYCLE    3
  SDIIS (wt  0.000):  0.0099 -0.2073  1.1974
 A-DIIS (wt  1.000):  0.2698  0.0000  0.7302
  DIIS coefficients:  0.2698  0.0000  0.7302
 SCF Error: norm([F,P])=      0.178101000498, max([F,P])=      0.058290569088
 orbitals (Q,E):
 ---------------
 A :1...6            ( 2.00   -13.9958)  ( 2.00    -0.7856)  ( 2.00    -0.4236)  ( 2.00    -0.4231)
                     ( 2.00    -0.2327)  ( 0.00    -0.0301)

 CYCLE    4
  SDIIS (wt  0.913):  0.0782 -0.3538  1.2757
 A-DIIS (wt  0.087):  0.0000  0.0000  1.0000
  DIIS coefficients:  0.0714 -0.3230  1.2517
 SCF Error: norm([F,P])=      0.022824985751, max([F,P])=      0.009623592323
 orbitals (Q,E):
 ---------------
 A :1...6            ( 2.00   -14.0061)  ( 2.00    -0.7745)  ( 2.00    -0.4124)  ( 2.00    -0.4119)
                     ( 2.00    -0.2230)  ( 0.00    -0.0279)

 CYCLE    5
  SDIIS (wt  1.000):  0.0122 -0.0460  0.1783  0.8556
  DIIS coefficients:  0.0122 -0.0460  0.1783  0.8556
 SCF Error: norm([F,P])=      0.002698433133, max([F,P])=      0.000845475938
 orbitals (Q,E):
 ---------------
 A :1...6            ( 2.00   -14.0063)  ( 2.00    -0.7749)  ( 2.00    -0.4129)  ( 2.00    -0.4124)
                     ( 2.00    -0.2238)  ( 0.00    -0.0280)

 CYCLE    6
  SDIIS (wt  1.000):  0.0006  0.0009  0.0057  0.2509  0.7419
  DIIS coefficients:  0.0006  0.0009  0.0057  0.2509  0.7419
 SCF Error: norm([F,P])=      0.000632442473, max([F,P])=      0.000258104340
 orbitals (Q,E):
 ---------------
 A :1...6            ( 2.00   -14.0064)  ( 2.00    -0.7750)  ( 2.00    -0.4130)  ( 2.00    -0.4125)
                     ( 2.00    -0.2238)  ( 0.00    -0.0281)

 CYCLE    7
  SDIIS (wt  1.000): -0.0000  0.0007 -0.0016  0.0086  0.0666  0.9257
  DIIS coefficients: -0.0000  0.0007 -0.0016  0.0086  0.0666  0.9257
 SCF Error: norm([F,P])=      0.000109843262, max([F,P])=      0.000042838196
 orbitals (Q,E):
 ---------------
 A :1...6            ( 2.00   -14.0064)  ( 2.00    -0.7750)  ( 2.00    -0.4130)  ( 2.00    -0.4125)
                     ( 2.00    -0.2238)  ( 0.00    -0.0281)

 CYCLE    8
  SDIIS (wt  1.000): -0.0000  0.0007 -0.0016  0.0085  0.0659  0.9179  0.0086
  DIIS coefficients: -0.0000  0.0007 -0.0016  0.0085  0.0659  0.9179  0.0086
 SCF Error: norm([F,P])=      0.000138912856, max([F,P])=      0.000069299659
 orbitals (Q,E):
 ---------------
 A :1...6            ( 2.00   -14.0064)  ( 2.00    -0.7750)  ( 2.00    -0.4130)  ( 2.00    -0.4125)
                     ( 2.00    -0.2238)  ( 0.00    -0.0281)

 CYCLE    9
  SDIIS (wt  1.000): -0.0000  0.0001 -0.0003 -0.0004  0.0057  0.1665 -0.1441  0.9726
  DIIS coefficients: -0.0000  0.0001 -0.0003 -0.0004  0.0057  0.1665 -0.1441  0.9726
 SCF Error: norm([F,P])=      0.000020966366, max([F,P])=      0.000009970393
 orbitals (Q,E):
 ---------------
 A :1...6            ( 2.00   -14.0064)  ( 2.00    -0.7750)  ( 2.00    -0.4130)  ( 2.00    -0.4125)
                     ( 2.00    -0.2238)  ( 0.00    -0.0281)

 CYCLE   10
  SDIIS (wt  1.000): -0.0000  0.0000 -0.0001 -0.0002  0.0011  0.0337 -0.1221  0.3755  0.7120
  DIIS coefficients: -0.0000  0.0000 -0.0001 -0.0002  0.0011  0.0337 -0.1221  0.3755  0.7120
 SCF Error: norm([F,P])=      0.000013020106, max([F,P])=      0.000006584009
 orbitals (Q,E):
 ---------------
 A :1...6            ( 2.00   -14.0064)  ( 2.00    -0.7750)  ( 2.00    -0.4130)  ( 2.00    -0.4125)
                     ( 2.00    -0.2238)  ( 0.00    -0.0281)

 CYCLE   11
  SDIIS (wt  1.000):  0.0000 -0.0000  0.0000 -0.0000 -0.0000 -0.0023 -0.1096  0.1105  0.1461  0.8554
  DIIS coefficients:  0.0000 -0.0000  0.0000 -0.0000 -0.0000 -0.0023 -0.1096  0.1105  0.1461  0.8554
 SCF Error: norm([F,P])=      0.000012922819, max([F,P])=      0.000006467386
 orbitals (Q,E):
 ---------------
 A :1...6            ( 2.00   -14.0064)  ( 2.00    -0.7750)  ( 2.00    -0.4130)  ( 2.00    -0.4125)
                     ( 2.00    -0.2238)  ( 0.00    -0.0281)

 CYCLE   12
  SDIIS (wt  1.000): -0.0000  0.0000 -0.0000 -0.0000 -0.0020 -0.1064  0.1033  0.0878  0.4930  0.4243
  DIIS coefficients: -0.0000  0.0000 -0.0000 -0.0000 -0.0020 -0.1064  0.1033  0.0878  0.4930  0.4243
 SCF Error: norm([F,P])=      0.000012121946, max([F,P])=      0.000006074898
 orbitals (Q,E):
 ---------------
 A :1...6            ( 2.00   -14.0064)  ( 2.00    -0.7750)  ( 2.00    -0.4130)  ( 2.00    -0.4125)
                     ( 2.00    -0.2238)  ( 0.00    -0.0281)

 CYCLE   13
  SDIIS (wt  1.000):  0.0000 -0.0000  0.0000 -0.0006 -0.1040  0.1049  0.0758  0.3599  0.5640
  DIIS coefficients:  0.0000 -0.0000  0.0000 -0.0006 -0.1040  0.1049  0.0758  0.3599  0.5640
 SCF Error: norm([F,P])=      0.000011806146, max([F,P])=      0.000005917071
 orbitals (Q,E):
 ---------------
 A :1...6            ( 2.00   -14.0064)  ( 2.00    -0.7750)  ( 2.00    -0.4130)  ( 2.00    -0.4125)
                     ( 2.00    -0.2238)  ( 0.00    -0.0281)

 CYCLE   14
  SDIIS (wt  1.000): -0.0000  0.0000 -0.0004 -0.1021  0.1030  0.0685  0.2965  0.6346
  DIIS coefficients: -0.0000  0.0000 -0.0004 -0.1021  0.1030  0.0685  0.2965  0.6346
 SCF Error: norm([F,P])=      0.000011570866, max([F,P])=      0.000005798758
 orbitals (Q,E):
 ---------------
 A :1...6            ( 2.00   -14.0064)  ( 2.00    -0.7750)  ( 2.00    -0.4130)  ( 2.00    -0.4125)
                     ( 2.00    -0.2238)  ( 0.00    -0.0281)

 CYCLE   15
  SDIIS (wt  1.000):  0.0000 -0.0005 -0.1003  0.1005  0.0616  0.2519  0.6868
  DIIS coefficients:  0.0000 -0.0005 -0.1003  0.1005  0.0616  0.2519  0.6868
 SCF Error: norm([F,P])=      0.000011368515, max([F,P])=      0.000005697531
 orbitals (Q,E):
 ---------------
 A :1...6            ( 2.00   -14.0064)  ( 2.00    -0.7750)  ( 2.00    -0.4130)  ( 2.00    -0.4125)
                     ( 2.00    -0.2238)  ( 0.00    -0.0281)

 CYCLE   16
  SDIIS (wt  1.000): -0.0003 -0.0975  0.0979  0.0475  0.1541  0.7985
  DIIS coefficients: -0.0003 -0.0975  0.0979  0.0475  0.1541  0.7985
 SCF Error: norm([F,P])=      0.000011180812, max([F,P])=      0.000005603446
 orbitals (Q,E):
 ---------------
 A :1...6            ( 2.00   -14.0064)  ( 2.00    -0.7750)  ( 2.00    -0.4130)  ( 2.00    -0.4125)
                     ( 2.00    -0.2238)  ( 0.00    -0.0281)

 CYCLE   17
  SDIIS (wt  1.000): -0.0921  0.0899  0.0178 -0.0087  0.9931
  DIIS coefficients: -0.0921  0.0899  0.0178 -0.0087  0.9931
 SCF Error: norm([F,P])=      0.000010898188, max([F,P])=      0.000005461862
 orbitals (Q,E):
 ---------------
 A :1...6            ( 2.00   -14.0064)  ( 2.00    -0.7750)  ( 2.00    -0.4130)  ( 2.00    -0.4125)
                     ( 2.00    -0.2238)  ( 0.00    -0.0281)

 CYCLE   18
  SDIIS (wt  1.000): -0.4277 -1.3754 -2.0000  1.8031  3.0000
  DIIS coefficients: -0.4277 -1.3754 -2.0000  1.8031  3.0000
 SCF Error: norm([F,P])=      0.000010374315, max([F,P])=      0.000005199091
 orbitals (Q,E):
 ---------------
 A :1...6            ( 2.00   -14.0064)  ( 2.00    -0.7750)  ( 2.00    -0.4130)  ( 2.00    -0.4125)
                     ( 2.00    -0.2238)  ( 0.00    -0.0281)

 CYCLE   19
  SDIIS (wt  1.000): -0.6070 -2.0000 -0.1640  3.0000  0.7711
  DIIS coefficients: -0.6070 -2.0000 -0.1640  3.0000  0.7711
 SCF Error: norm([F,P])=      0.000004931388, max([F,P])=      0.000002231454
 orbitals (Q,E):
 ---------------
 A :1...6            ( 2.00   -14.0064)  ( 2.00    -0.7750)  ( 2.00    -0.4130)  ( 2.00    -0.4125)
                     ( 2.00    -0.2238)  ( 0.00    -0.0281)

 CYCLE   20
  SDIIS (wt  1.000):  0.3652 -2.0000 -1.4149  3.0000  0.5644  0.4853
  DIIS coefficients:  0.3652 -2.0000 -1.4149  3.0000  0.5644  0.4853
 SCF Error: norm([F,P])=      0.000003391344, max([F,P])=      0.000001053257
 orbitals (Q,E):
 ---------------
 A :1...6            ( 2.00   -14.0064)  ( 2.00    -0.7750)  ( 2.00    -0.4130)  ( 2.00    -0.4125)
                     ( 2.00    -0.2238)  ( 0.00    -0.0281)

 CYCLE   21
  SDIIS (wt  1.000): -0.4872 -1.5327 -1.2748  2.4047  0.8280  0.1544  0.1350  0.7727
[...]
 *   E-mail:  support@scm.com   info@scm.com                                   *
 *                                                                             *
 *   Scientific publications using ADF results must be properly referenced     *
 *   See the User Manuals (or the web site) for recommended citations          *
 *   The terms and conditions of the End User License Agreement apply to       *
 *   the use of ADF, https://www.scm.com/license-terms/                        *
 *                                                                             *
 **********************  x86_64_linux_intel / intelmpi  ************************
 
 Licensed to: Prof. Nazzareno Re / Facolta' di Farmacia Universita "G. d'Annunzio" / Chieti / IT
 SCM User ID: u7154
  
 CJDENSF 2018  RunTime: May20-2020 08:41:53  Nodes: 1  Procs: 1

 Temporary files are created in /home/mdesantis/pybertha/psi4embedrt/short/jobtempdir/kid_0.30110711

  
 CJ SPECIAL GRID
 ===============
  
  Importing grid from TAPE10 
  
 Summary of selected items
 =========================
 
  Fragment used: active
 
 Exact Density (SumFrag, Orth, SCF)        :      F F F
 Fit   Density (SumFrag, Orth, SCF, Trans) :      F F F F
 
 Density Gradient (SCF, Fit)  :                   T F
 
 Density Laplacian and Hessian (SCF, Fit)  :      F F
 
 Potential (NUC, COUL, XC, TOT)  :                F F F F
 
 Functional NONE                                                                                                                                                            
 
 allFragments  F
 Calculating active density 
  1% done
  2% done
  3% done
  4% done
  5% done
  6% done
  7% done
  8% done
  9% done
 10% done
 11% done
 12% done
 13% done
 14% done
 15% done
 16% done
 17% done
 18% done
 19% done
 20% done
 21% done
 22% done
 23% done
 24% done
 25% done
 26% done
 27% done
 28% done
 29% done
 30% done
 31% done
 32% done
 33% done
 34% done
 35% done
 36% done
 37% done
 38% done
 39% done
 40% done
 41% done
 42% done
 43% done
 44% done
 45% done
 46% done
 47% done
 48% done
 49% done
 50% done
 51% done
 52% done
 53% done
 54% done
 55% done
 56% done
 57% done
 58% done
 59% done
 60% done
 61% done
 62% done
 63% done
 64% done
 65% done
 66% done
 67% done
 68% done
 69% done
 70% done
 71% done
 72% done
 73% done
 74% done
 75% done
 76% done
 77% done
 78% done
 79% done
 80% done
 81% done
 82% done
 83% done
 84% done
 85% done
 86% done
 87% done
 88% done
 89% done
 90% done
 91% done
 92% done
 93% done
 94% done
 95% done
 96% done
 97% done
 98% done
 99% done
100% done
 *******************************************************************************

                             D E N S F   E X I T
 NORMAL TERMINATION



 =================
 Timing Statistics
 =================
  
 Total Used :                     CPU=        0.24      System=        0.03     Elapsed=        0.44

 Calls  Section                     ( Mean, Percentage )
 ---------------------------------------------------------------------------------------------------
     2  ><      ................      0.00    0.00             0.00    0.08             0.00    0.01
     1  EXIT PROCEDURE .........      0.24  100.00             0.03   99.92             0.44   99.99


 Currently Open Files (EXIT00)
 ====================

 Unit    Access Format  Status   Type       Ident (file)
 -------------------------------------------------------
   3      SEQ    FORM   TRANSP  NORMAL      LOGFILE
                                          ( logfile )


 Buffered I/O statistics
 =======================
 Memory available:                     67108864
 Number of records fitting in memory:     16131
 Input :   3.3% of                        10332  *4k bytes
 Output:  20.7% of                         1286  *4k bytes
 Records from serial files evicted:           0
                    others evicted:           0
 Hash table lookups:      27826 with          0 conflicts (  0.00%)
--- PyADF *** new job *** PyADF ---

 *******************************************************************************
 *                                                                             *
 *  -------------------------------------                                      *
 *   Amsterdam Density Functional  (ADF)         2018                          *
 *  -------------------------------------                                      *
 *                                               r70630 2018-11-24             *
 *                                                                             *
 *                                                                             *
 *                          =========================                          *
 *                          |                       |                          *
 *                          |     C J D E N S F     |                          *
 *                          |                       |                          *
 *                          =========================                          *
 *                                                                             *
 *                                                                             *
 *   Online information and documentation:  https://www.scm.com/support/       *
 *   E-mail:  support@scm.com   info@scm.com                                   *
 *                                                                             *
 *   Scientific publications using ADF results must be properly referenced     *
 *   See the User Manuals (or the web site) for recommended citations          *
 *   The terms and conditions of the End User License Agreement apply to       *
 *   the use of ADF, https://www.scm.com/license-terms/                        *
 *                                                                             *
 **********************  x86_64_linux_intel / intelmpi  ************************
 
 Licensed to: Prof. Nazzareno Re / Facolta' di Farmacia Universita "G. d'Annunzio" / Chieti / IT
 SCM User ID: u7154
  
 CJDENSF 2018  RunTime: May20-2020 08:41:55  Nodes: 1  Procs: 1

 Temporary files are created in /home/mdesantis/pybertha/psi4embedrt/short/jobtempdir/kid_0.1547819098

  
 CJ SPECIAL GRID
 ===============
  
  Importing grid from TAPE10 
  
 Summary of selected items
 =========================
 
  Fragment used: active
 
 Exact Density (SumFrag, Orth, SCF)        :      F F F
 Fit   Density (SumFrag, Orth, SCF, Trans) :      F F F F
 
 Density Gradient (SCF, Fit)  :                   F F
 
 Density Laplacian and Hessian (SCF, Fit)  :      T F
 
 Potential (NUC, COUL, XC, TOT)  :                F F F F
 
 Functional NONE                                                                                                                                                            
 
 allFragments  F
 Calculating active density 
  1% done
  2% done
  3% done
  4% done
  5% done
  6% done
  7% done
  8% done
  9% done
 10% done
 11% done
 12% done
 13% done
 14% done
 15% done
 16% done
 17% done
 18% done
 19% done
 20% done
 21% done
 22% done
 23% done
 24% done
 25% done
 26% done
 27% done
 28% done
 29% done
 30% done
 31% done
 32% done
 33% done
 34% done
 35% done
 36% done
 37% done
 38% done
 39% done
 40% done
 41% done
 42% done
 43% done
 44% done
 45% done
 46% done
 47% done
 48% done
 49% done
 50% done
 51% done
 52% done
 53% done
 54% done
 55% done
 56% done
 57% done
 58% done
 59% done
 60% done
 61% done
 62% done
 63% done
 64% done
 65% done
 66% done
 67% done
 68% done
 69% done
 70% done
 71% done
 72% done
 73% done
 74% done
 75% done
 76% done
 77% done
 78% done
 79% done
 80% done
 81% done
 82% done
 83% done
 84% done
 85% done
 86% done
 87% done
 88% done
 89% done
 90% done
 91% done
 92% done
 93% done
 94% done
 95% done
 96% done
 97% done
 98% done
 99% done
100% done
 *******************************************************************************

                             D E N S F   E X I T
 NORMAL TERMINATION



 =================
 Timing Statistics
 =================
  
 Total Used :                     CPU=        0.22      System=        0.02     Elapsed=        0.29

 Calls  Section                     ( Mean, Percentage )
 ---------------------------------------------------------------------------------------------------
     2  ><      ................      0.00    0.00             0.00    0.04             0.00    0.01
     1  EXIT PROCEDURE .........      0.22  100.00             0.02   99.96             0.29   99.99


 Currently Open Files (EXIT00)
 ====================

 Unit    Access Format  Status   Type       Ident (file)
 -------------------------------------------------------
   3      SEQ    FORM   TRANSP  NORMAL      LOGFILE
                                          ( logfile )


 Buffered I/O statistics
 =======================
 Memory available:                     67108864
 Number of records fitting in memory:     16131
 Input :   2.0% of                        16827  *4k bytes
 Output:  20.4% of                         2243  *4k bytes
 Records from serial files evicted:           0
                    others evicted:           0
 Hash table lookups:      45820 with          0 conflicts (  0.00%)
--- PyADF *** new job *** PyADF ---

 *******************************************************************************
 *                                                                             *
 *  -------------------------------------                                      *
 *   Amsterdam Density Functional  (ADF)         2018                          *
 *  -------------------------------------                                      *
 *                                               r70630 2018-11-24             *
 *                                                                             *
 *                                                                             *
 *                          =========================                          *
 *                          |                       |                          *
 *                          |     C J D E N S F     |                          *
 *                          |                       |                          *
 *                          =========================                          *
 *                                                                             *
 *                                                                             *
 *   Online information and documentation:  https://www.scm.com/support/       *
 *   E-mail:  support@scm.com   info@scm.com                                   *
 *                                                                             *
 *   Scientific publications using ADF results must be properly referenced     *
 *   See the User Manuals (or the web site) for recommended citations          *
 *   The terms and conditions of the End User License Agreement apply to       *
 *   the use of ADF, https://www.scm.com/license-terms/                        *
 *                                                                             *
 **********************  x86_64_linux_intel / intelmpi  ************************
 
 Licensed to: Prof. Nazzareno Re / Facolta' di Farmacia Universita "G. d'Annunzio" / Chieti / IT
 SCM User ID: u7154
  
 CJDENSF 2018  RunTime: May20-2020 08:41:57  Nodes: 1  Procs: 1

 Temporary files are created in /home/mdesantis/pybertha/psi4embedrt/short/jobtempdir/kid_0.1090430939

  
 CJ SPECIAL GRID
 ===============
  
  Importing grid from TAPE10 
  
 Summary of selected items
 =========================
 
  Fragment used: active
 
 Exact Density (SumFrag, Orth, SCF)        :      F F F
 Fit   Density (SumFrag, Orth, SCF, Trans) :      F F F F
 
 Density Gradient (SCF, Fit)  :                   F F
 
 Density Laplacian and Hessian (SCF, Fit)  :      F F
 
 Potential (NUC, COUL, XC, TOT)  :                T F F F
 
 Functional NONE                                                                                                                                                            
 
 allFragments  F
 Calculating active density 
  1% done
  2% done
  3% done
  4% done
  5% done
  6% done
  7% done
  8% done
  9% done
 10% done
 11% done
 12% done
 13% done
 14% done
 15% done
 16% done
 17% done
 18% done
 19% done
 20% done
 21% done
 22% done
 23% done
 24% done
 25% done
 26% done
 27% done
 28% done
 29% done
 30% done
 31% done
 32% done
 33% done
 34% done
 35% done
 36% done
 37% done
 38% done
 39% done
 40% done
 41% done
 42% done
 43% done
 44% done
 45% done
 46% done
 47% done
 48% done
 49% done
 50% done
 51% done
 52% done
 53% done
 54% done
 55% done
 56% done
 57% done
 58% done
 59% done
 60% done
 61% done
 62% done
 63% done
 64% done
 65% done
 66% done
 67% done
 68% done
 69% done
 70% done
 71% done
 72% done
 73% done
 74% done
 75% done
 76% done
 77% done
 78% done
 79% done
 80% done
 81% done
 82% done
 83% done
 84% done
 85% done
 86% done
 87% done
 88% done
 89% done
 90% done
 91% done
 92% done
 93% done
 94% done
 95% done
 96% done
 97% done
 98% done
 99% done
100% done
 *******************************************************************************

                             D E N S F   E X I T
 NORMAL TERMINATION



 =================
 Timing Statistics
 =================
  
 Total Used :                     CPU=        0.02      System=        0.02     Elapsed=        0.07

 Calls  Section                     ( Mean, Percentage )
 ---------------------------------------------------------------------------------------------------
     2  ><      ................      0.00    0.01             0.00    0.05             0.00    0.02
     1  EXIT PROCEDURE .........      0.02   99.99             0.02   99.95             0.07   99.98


 Currently Open Files (EXIT00)
 ====================

 Unit    Access Format  Status   Type       Ident (file)
 -------------------------------------------------------
   3      SEQ    FORM   TRANSP  NORMAL      LOGFILE
                                          ( logfile )


 Buffered I/O statistics
 =======================
 Memory available:                     67108864
 Number of records fitting in memory:     16131
 Input :  10.2% of                         3329  *4k bytes
 Output:  98.7% of                           75  *4k bytes
 Records from serial files evicted:           0
                    others evicted:           0
 Hash table lookups:       7290 with          0 conflicts (  0.00%)
--- PyADF *** new job *** PyADF ---

 *******************************************************************************
 *                                                                             *
 *  -------------------------------------                                      *
 *   Amsterdam Density Functional  (ADF)         2018                          *
 *  -------------------------------------                                      *
 *                                               r70630 2018-11-24             *
 *                                                                             *
 *                                                                             *
 *                          =========================                          *
 *                          |                       |                          *
 *                          |     C J D E N S F     |                          *
 *                          |                       |                          *
 *                          =========================                          *
 *                                                                             *
 *                                                                             *
 *   Online information and documentation:  https://www.scm.com/support/       *
 *   E-mail:  support@scm.com   info@scm.com                                   *
 *                                                                             *
 *   Scientific publications using ADF results must be properly referenced     *
 *   See the User Manuals (or the web site) for recommended citations          *
 *   The terms and conditions of the End User License Agreement apply to       *
 *   the use of ADF, https://www.scm.com/license-terms/                        *
 *                                                                             *
 **********************  x86_64_linux_intel / intelmpi  ************************
 
 Licensed to: Prof. Nazzareno Re / Facolta' di Farmacia Universita "G. d'Annunzio" / Chieti / IT
 SCM User ID: u7154
  
 CJDENSF 2018  RunTime: May20-2020 08:41:57  Nodes: 1  Procs: 1

 Temporary files are created in /home/mdesantis/pybertha/psi4embedrt/short/jobtempdir/kid_0.2095645911

  
 CJ SPECIAL GRID
 ===============
  
  Importing grid from TAPE10 
  
 Summary of selected items
 =========================
 
  Fragment used: active
 
 Exact Density (SumFrag, Orth, SCF)        :      F F F
 Fit   Density (SumFrag, Orth, SCF, Trans) :      F F F F
 
 Density Gradient (SCF, Fit)  :                   F F
 
 Density Laplacian and Hessian (SCF, Fit)  :      F F
 
 Potential (NUC, COUL, XC, TOT)  :                F T F F
 
 Functional NONE                                                                                                                                                            
 
 allFragments  F
 Calculating active density 
  1% done
  2% done
  3% done
  4% done
  5% done
  6% done
  7% done
  8% done
  9% done
 10% done
 11% done
 12% done
 13% done
 14% done
 15% done
 16% done
 17% done
 18% done
 19% done
 20% done
 21% done
 22% done
 23% done
 24% done
 25% done
 26% done
 27% done
 28% done
 29% done
 30% done
 31% done
 32% done
 33% done
 34% done
 35% done
 36% done
 37% done
 38% done
 39% done
 40% done
 41% done
 42% done
 43% done
 44% done
 45% done
 46% done
 47% done
 48% done
 49% done
 50% done
 51% done
 52% done
 53% done
 54% done
 55% done
 56% done
 57% done
 58% done
 59% done
 60% done
 61% done
 62% done
 63% done
 64% done
 65% done
 66% done
 67% done
 68% done
 69% done
 70% done
 71% done
 72% done
 73% done
 74% done
 75% done
 76% done
 77% done
 78% done
 79% done
 80% done
 81% done
 82% done
 83% done
 84% done
 85% done
 86% done
 87% done
 88% done
 89% done
 90% done
 91% done
 92% done
 93% done
 94% done
 95% done
 96% done
 97% done
 98% done
 99% done
100% done
 *******************************************************************************

                             D E N S F   E X I T
 NORMAL TERMINATION



 =================
 Timing Statistics
 =================
  
 Total Used :                     CPU=        0.08      System=        0.02     Elapsed=        0.13

 Calls  Section                     ( Mean, Percentage )
 ---------------------------------------------------------------------------------------------------
     2  ><      ................      0.00    0.01             0.00    0.05             0.00    0.01
     1  EXIT PROCEDURE .........      0.08   99.99             0.02   99.95             0.13   99.99


 Currently Open Files (EXIT00)
 ====================

 Unit    Access Format  Status   Type       Ident (file)
 -------------------------------------------------------
   3      SEQ    FORM   TRANSP  NORMAL      LOGFILE
                                          ( logfile )


 Buffered I/O statistics
 =======================
 Memory available:                     67108864
 Number of records fitting in memory:     16131
 Input :  10.2% of                         3329  *4k bytes
 Output:  98.7% of                           75  *4k bytes
 Records from serial files evicted:           0
                    others evicted:           0
 Hash table lookups:       7290 with          0 conflicts (  0.00%)
