
Host: grant

Timers On : Mon Nov 15 17:56:56 2021
Timers Off: Mon Nov 15 18:09:08 2021

Wall Time:      732.02 seconds

                                                       Time (seconds)
Module                                       User      System        Wall        Calls

--------------------------------------------------------------------------------------

**************************************************************************************

Host: grant

Timers On : Tue Nov 16 05:05:42 2021
Timers Off: Tue Nov 16 05:05:44 2021

Wall Time:        1.41 seconds

                                                       Time (seconds)
Module                                       User      System        Wall        Calls

--------------------------------------------------------------------------------------

**************************************************************************************

Host: grant

Timers On : Tue Nov 16 05:18:08 2021
Timers Off: Tue Nov 16 05:53:13 2021

Wall Time:     2105.48 seconds

                                                       Time (seconds)
Module                                       User      System        Wall        Calls

--------------------------------------------------------------------------------------

**************************************************************************************

Host: grant

Timers On : Tue Nov 16 05:59:00 2021
Timers Off: Tue Nov 16 07:44:18 2021

Wall Time:     6318.19 seconds

                                                       Time (seconds)
Module                                       User      System        Wall        Calls

--------------------------------------------------------------------------------------

**************************************************************************************

Host: grant

Timers On : Tue Nov 16 17:40:37 2021
Timers Off: Tue Nov 16 18:15:38 2021

Wall Time:     2100.65 seconds

                                                       Time (seconds)
Module                                       User      System        Wall        Calls

--------------------------------------------------------------------------------------

**************************************************************************************

Host: grant

Timers On : Wed Nov 17 11:24:09 2021
Timers Off: Wed Nov 17 13:11:44 2021

Wall Time:     6454.05 seconds

                                                       Time (seconds)
Module                                       User      System        Wall        Calls

--------------------------------------------------------------------------------------

**************************************************************************************

Host: grant

Timers On : Thu Nov 18 01:17:39 2021
Timers Off: Thu Nov 18 01:28:18 2021

Wall Time:      639.07 seconds

                                                       Time (seconds)
Module                                       User      System        Wall        Calls

--------------------------------------------------------------------------------------

**************************************************************************************

Host: grant

Timers On : Thu Nov 18 01:43:36 2021
Timers Off: Thu Nov 18 01:48:53 2021

Wall Time:      316.86 seconds

                                                       Time (seconds)
Module                                       User      System        Wall        Calls

--------------------------------------------------------------------------------------

**************************************************************************************

Host: grant

Timers On : Thu Nov 18 01:54:41 2021
Timers Off: Thu Nov 18 02:00:00 2021

Wall Time:      318.54 seconds

                                                       Time (seconds)
Module                                       User      System        Wall        Calls

--------------------------------------------------------------------------------------

**************************************************************************************

Host: grant

Timers On : Thu Nov 18 14:00:05 2021
Timers Off: Thu Nov 18 14:05:25 2021

Wall Time:      320.28 seconds

                                                       Time (seconds)
Module                                       User      System        Wall        Calls

--------------------------------------------------------------------------------------

**************************************************************************************

Host: grant

Timers On : Thu Nov 18 14:19:39 2021
Timers Off: Thu Nov 18 14:25:09 2021

Wall Time:      329.32 seconds

                                                       Time (seconds)
Module                                       User      System        Wall        Calls

--------------------------------------------------------------------------------------

**************************************************************************************

Host: grant

Timers On : Thu Nov 18 14:27:40 2021
Timers Off: Thu Nov 18 14:33:05 2021

Wall Time:      325.59 seconds

                                                       Time (seconds)
Module                                       User      System        Wall        Calls

--------------------------------------------------------------------------------------

**************************************************************************************

Host: grant

Timers On : Thu Nov 18 14:42:40 2021
Timers Off: Thu Nov 18 14:45:03 2021

Wall Time:      142.59 seconds

                                                       Time (seconds)
Module                                       User      System        Wall        Calls

--------------------------------------------------------------------------------------

**************************************************************************************

Host: grant

Timers On : Thu Nov 18 15:07:32 2021
Timers Off: Thu Nov 18 15:09:50 2021

Wall Time:      138.13 seconds

                                                       Time (seconds)
Module                                       User      System        Wall        Calls

--------------------------------------------------------------------------------------

**************************************************************************************

Host: grant

Timers On : Thu Nov 18 15:34:29 2021
Timers Off: Thu Nov 18 15:36:52 2021

Wall Time:      143.17 seconds

                                                       Time (seconds)
Module                                       User      System        Wall        Calls

--------------------------------------------------------------------------------------

**************************************************************************************

Host: grant

Timers On : Thu Nov 18 15:42:07 2021
Timers Off: Thu Nov 18 15:44:31 2021

Wall Time:      143.95 seconds

                                                       Time (seconds)
Module                                       User      System        Wall        Calls

--------------------------------------------------------------------------------------

**************************************************************************************

Host: grant

Timers On : Thu Nov 18 15:59:56 2021
Timers Off: Thu Nov 18 16:02:13 2021

Wall Time:      136.88 seconds

                                                       Time (seconds)
Module                                       User      System        Wall        Calls

--------------------------------------------------------------------------------------

**************************************************************************************

Host: grant

Timers On : Thu Nov 18 16:07:57 2021
Timers Off: Thu Nov 18 16:10:15 2021

Wall Time:      138.77 seconds

                                                       Time (seconds)
Module                                       User      System        Wall        Calls

--------------------------------------------------------------------------------------

**************************************************************************************

Host: grant

Timers On : Thu Nov 18 16:12:09 2021
Timers Off: Thu Nov 18 16:14:25 2021

Wall Time:      136.19 seconds

                                                       Time (seconds)
Module                                       User      System        Wall        Calls

--------------------------------------------------------------------------------------

**************************************************************************************
